V -t * -v 1.0a5 -a 0
A -t * -n 1 -p 0 -o 0x7fffffff -c 30 -a 1
A -t * -h 1 -m 1073741823 -s 0
c -t * -i 1 -n Red
c -t * -i 2 -n Blue
n -t * -a 4 -s 4 -S UP -v circle -c black -i black
n -t * -a 0 -s 0 -S UP -v circle -c black -i black
n -t * -a 5 -s 5 -S UP -v circle -c black -i black
n -t * -a 1 -s 1 -S UP -v circle -c black -i black
n -t * -a 6 -s 6 -S UP -v circle -c black -i black
n -t * -a 2 -s 2 -S UP -v circle -c black -i black
n -t * -a 7 -s 7 -S UP -v circle -c black -i black
n -t * -a 3 -s 3 -S UP -v circle -c black -i black
l -t * -s 0 -d 1 -S UP -r 2000000 -D 0.01 -c black -o left
l -t * -s 0 -d 2 -S UP -r 2000000 -D 0.01 -c black -o right-up
l -t * -s 1 -d 5 -S UP -r 1700000 -D 0.01 -c black -o up
l -t * -s 2 -d 4 -S UP -r 1000000 -D 0.01 -c black -o left-up
l -t * -s 4 -d 5 -S UP -r 1300000 -D 0.01 -c black -o left-down
l -t * -s 2 -d 3 -S UP -r 1000000 -D 0.01 -c black -o up
l -t * -s 4 -d 6 -S UP -r 1300000 -D 0.01 -c black -o up
l -t * -s 3 -d 7 -S UP -r 2300000 -D 0.01 -c black -o up
l -t * -s 3 -d 4 -S UP -r 2300000 -D 0.01 -c black -o left
q -t * -s 2 -d 4 -a 0.5
q -t * -s 4 -d 2 -a 0.5
q -t * -s 2 -d 3 -a 0.5
q -t * -s 3 -d 2 -a 0.5
+ -t 0.4 -s 0 -d 2 -p tcp -e 40 -c 1 -i 0 -a 1 -x {0.0 6.0 0 ------- null}
- -t 0.4 -s 0 -d 2 -p tcp -e 40 -c 1 -i 0 -a 1 -x {0.0 6.0 0 ------- null}
h -t 0.4 -s 0 -d 2 -p tcp -e 40 -c 1 -i 0 -a 1 -x {0.0 6.0 -1 ------- null}
r -t 0.41016 -s 0 -d 2 -p tcp -e 40 -c 1 -i 0 -a 1 -x {0.0 6.0 0 ------- null}
+ -t 0.41016 -s 2 -d 4 -p tcp -e 40 -c 1 -i 0 -a 1 -x {0.0 6.0 0 ------- null}
- -t 0.41016 -s 2 -d 4 -p tcp -e 40 -c 1 -i 0 -a 1 -x {0.0 6.0 0 ------- null}
h -t 0.41016 -s 2 -d 4 -p tcp -e 40 -c 1 -i 0 -a 1 -x {0.0 6.0 -1 ------- null}
r -t 0.42048 -s 2 -d 4 -p tcp -e 40 -c 1 -i 0 -a 1 -x {0.0 6.0 0 ------- null}
+ -t 0.42048 -s 4 -d 6 -p tcp -e 40 -c 1 -i 0 -a 1 -x {0.0 6.0 0 ------- null}
- -t 0.42048 -s 4 -d 6 -p tcp -e 40 -c 1 -i 0 -a 1 -x {0.0 6.0 0 ------- null}
h -t 0.42048 -s 4 -d 6 -p tcp -e 40 -c 1 -i 0 -a 1 -x {0.0 6.0 -1 ------- null}
r -t 0.430726153846154 -s 4 -d 6 -p tcp -e 40 -c 1 -i 0 -a 1 -x {0.0 6.0 0 ------- null}
+ -t 0.430726153846154 -s 6 -d 4 -p ack -e 40 -c 1 -i 1 -a 1 -x {6.0 0.0 0 ------- null}
- -t 0.430726153846154 -s 6 -d 4 -p ack -e 40 -c 1 -i 1 -a 1 -x {6.0 0.0 0 ------- null}
h -t 0.430726153846154 -s 6 -d 4 -p ack -e 40 -c 1 -i 1 -a 1 -x {6.0 0.0 -1 ------- null}
r -t 0.440972307692308 -s 6 -d 4 -p ack -e 40 -c 1 -i 1 -a 1 -x {6.0 0.0 0 ------- null}
+ -t 0.440972307692308 -s 4 -d 2 -p ack -e 40 -c 1 -i 1 -a 1 -x {6.0 0.0 0 ------- null}
- -t 0.440972307692308 -s 4 -d 2 -p ack -e 40 -c 1 -i 1 -a 1 -x {6.0 0.0 0 ------- null}
h -t 0.440972307692308 -s 4 -d 2 -p ack -e 40 -c 1 -i 1 -a 1 -x {6.0 0.0 -1 ------- null}
r -t 0.451292307692308 -s 4 -d 2 -p ack -e 40 -c 1 -i 1 -a 1 -x {6.0 0.0 0 ------- null}
+ -t 0.451292307692308 -s 2 -d 0 -p ack -e 40 -c 1 -i 1 -a 1 -x {6.0 0.0 0 ------- null}
- -t 0.451292307692308 -s 2 -d 0 -p ack -e 40 -c 1 -i 1 -a 1 -x {6.0 0.0 0 ------- null}
h -t 0.451292307692308 -s 2 -d 0 -p ack -e 40 -c 1 -i 1 -a 1 -x {6.0 0.0 -1 ------- null}
r -t 0.461452307692308 -s 2 -d 0 -p ack -e 40 -c 1 -i 1 -a 1 -x {6.0 0.0 0 ------- null}
+ -t 0.461452307692308 -s 0 -d 2 -p tcp -e 1040 -c 1 -i 2 -a 1 -x {0.0 6.0 1 ------- null}
- -t 0.461452307692308 -s 0 -d 2 -p tcp -e 1040 -c 1 -i 2 -a 1 -x {0.0 6.0 1 ------- null}
h -t 0.461452307692308 -s 0 -d 2 -p tcp -e 1040 -c 1 -i 2 -a 1 -x {0.0 6.0 -1 ------- null}
+ -t 0.461452307692308 -s 0 -d 2 -p tcp -e 1040 -c 1 -i 3 -a 1 -x {0.0 6.0 2 ------- null}
- -t 0.465612307692308 -s 0 -d 2 -p tcp -e 1040 -c 1 -i 3 -a 1 -x {0.0 6.0 2 ------- null}
h -t 0.465612307692308 -s 0 -d 2 -p tcp -e 1040 -c 1 -i 3 -a 1 -x {0.0 6.0 -1 ------- null}
r -t 0.475612307692308 -s 0 -d 2 -p tcp -e 1040 -c 1 -i 2 -a 1 -x {0.0 6.0 1 ------- null}
+ -t 0.475612307692308 -s 2 -d 4 -p tcp -e 1040 -c 1 -i 2 -a 1 -x {0.0 6.0 1 ------- null}
- -t 0.475612307692308 -s 2 -d 4 -p tcp -e 1040 -c 1 -i 2 -a 1 -x {0.0 6.0 1 ------- null}
h -t 0.475612307692308 -s 2 -d 4 -p tcp -e 1040 -c 1 -i 2 -a 1 -x {0.0 6.0 -1 ------- null}
r -t 0.479772307692308 -s 0 -d 2 -p tcp -e 1040 -c 1 -i 3 -a 1 -x {0.0 6.0 2 ------- null}
+ -t 0.479772307692308 -s 2 -d 4 -p tcp -e 1040 -c 1 -i 3 -a 1 -x {0.0 6.0 2 ------- null}
- -t 0.483932307692308 -s 2 -d 4 -p tcp -e 1040 -c 1 -i 3 -a 1 -x {0.0 6.0 2 ------- null}
h -t 0.483932307692308 -s 2 -d 4 -p tcp -e 1040 -c 1 -i 3 -a 1 -x {0.0 6.0 -1 ------- null}
r -t 0.493932307692308 -s 2 -d 4 -p tcp -e 1040 -c 1 -i 2 -a 1 -x {0.0 6.0 1 ------- null}
+ -t 0.493932307692308 -s 4 -d 6 -p tcp -e 1040 -c 1 -i 2 -a 1 -x {0.0 6.0 1 ------- null}
- -t 0.493932307692308 -s 4 -d 6 -p tcp -e 1040 -c 1 -i 2 -a 1 -x {0.0 6.0 1 ------- null}
h -t 0.493932307692308 -s 4 -d 6 -p tcp -e 1040 -c 1 -i 2 -a 1 -x {0.0 6.0 -1 ------- null}
r -t 0.502252307692308 -s 2 -d 4 -p tcp -e 1040 -c 1 -i 3 -a 1 -x {0.0 6.0 2 ------- null}
+ -t 0.502252307692308 -s 4 -d 6 -p tcp -e 1040 -c 1 -i 3 -a 1 -x {0.0 6.0 2 ------- null}
- -t 0.502252307692308 -s 4 -d 6 -p tcp -e 1040 -c 1 -i 3 -a 1 -x {0.0 6.0 2 ------- null}
h -t 0.502252307692308 -s 4 -d 6 -p tcp -e 1040 -c 1 -i 3 -a 1 -x {0.0 6.0 -1 ------- null}
r -t 0.510332307692308 -s 4 -d 6 -p tcp -e 1040 -c 1 -i 2 -a 1 -x {0.0 6.0 1 ------- null}
+ -t 0.510332307692308 -s 6 -d 4 -p ack -e 40 -c 1 -i 4 -a 1 -x {6.0 0.0 1 ------- null}
- -t 0.510332307692308 -s 6 -d 4 -p ack -e 40 -c 1 -i 4 -a 1 -x {6.0 0.0 1 ------- null}
h -t 0.510332307692308 -s 6 -d 4 -p ack -e 40 -c 1 -i 4 -a 1 -x {6.0 0.0 -1 ------- null}
r -t 0.518652307692308 -s 4 -d 6 -p tcp -e 1040 -c 1 -i 3 -a 1 -x {0.0 6.0 2 ------- null}
+ -t 0.518652307692308 -s 6 -d 4 -p ack -e 40 -c 1 -i 5 -a 1 -x {6.0 0.0 2 ------- null}
- -t 0.518652307692308 -s 6 -d 4 -p ack -e 40 -c 1 -i 5 -a 1 -x {6.0 0.0 2 ------- null}
h -t 0.518652307692308 -s 6 -d 4 -p ack -e 40 -c 1 -i 5 -a 1 -x {6.0 0.0 -1 ------- null}
r -t 0.520578461538462 -s 6 -d 4 -p ack -e 40 -c 1 -i 4 -a 1 -x {6.0 0.0 1 ------- null}
+ -t 0.520578461538462 -s 4 -d 2 -p ack -e 40 -c 1 -i 4 -a 1 -x {6.0 0.0 1 ------- null}
- -t 0.520578461538462 -s 4 -d 2 -p ack -e 40 -c 1 -i 4 -a 1 -x {6.0 0.0 1 ------- null}
h -t 0.520578461538462 -s 4 -d 2 -p ack -e 40 -c 1 -i 4 -a 1 -x {6.0 0.0 -1 ------- null}
r -t 0.528898461538461 -s 6 -d 4 -p ack -e 40 -c 1 -i 5 -a 1 -x {6.0 0.0 2 ------- null}
+ -t 0.528898461538461 -s 4 -d 2 -p ack -e 40 -c 1 -i 5 -a 1 -x {6.0 0.0 2 ------- null}
- -t 0.528898461538461 -s 4 -d 2 -p ack -e 40 -c 1 -i 5 -a 1 -x {6.0 0.0 2 ------- null}
h -t 0.528898461538461 -s 4 -d 2 -p ack -e 40 -c 1 -i 5 -a 1 -x {6.0 0.0 -1 ------- null}
r -t 0.530898461538462 -s 4 -d 2 -p ack -e 40 -c 1 -i 4 -a 1 -x {6.0 0.0 1 ------- null}
+ -t 0.530898461538462 -s 2 -d 0 -p ack -e 40 -c 1 -i 4 -a 1 -x {6.0 0.0 1 ------- null}
- -t 0.530898461538462 -s 2 -d 0 -p ack -e 40 -c 1 -i 4 -a 1 -x {6.0 0.0 1 ------- null}
h -t 0.530898461538462 -s 2 -d 0 -p ack -e 40 -c 1 -i 4 -a 1 -x {6.0 0.0 -1 ------- null}
r -t 0.539218461538461 -s 4 -d 2 -p ack -e 40 -c 1 -i 5 -a 1 -x {6.0 0.0 2 ------- null}
+ -t 0.539218461538461 -s 2 -d 0 -p ack -e 40 -c 1 -i 5 -a 1 -x {6.0 0.0 2 ------- null}
- -t 0.539218461538461 -s 2 -d 0 -p ack -e 40 -c 1 -i 5 -a 1 -x {6.0 0.0 2 ------- null}
h -t 0.539218461538461 -s 2 -d 0 -p ack -e 40 -c 1 -i 5 -a 1 -x {6.0 0.0 -1 ------- null}
r -t 0.541058461538461 -s 2 -d 0 -p ack -e 40 -c 1 -i 4 -a 1 -x {6.0 0.0 1 ------- null}
+ -t 0.541058461538461 -s 0 -d 2 -p tcp -e 1040 -c 1 -i 6 -a 1 -x {0.0 6.0 3 ------- null}
- -t 0.541058461538461 -s 0 -d 2 -p tcp -e 1040 -c 1 -i 6 -a 1 -x {0.0 6.0 3 ------- null}
h -t 0.541058461538461 -s 0 -d 2 -p tcp -e 1040 -c 1 -i 6 -a 1 -x {0.0 6.0 -1 ------- null}
+ -t 0.541058461538461 -s 0 -d 2 -p tcp -e 1040 -c 1 -i 7 -a 1 -x {0.0 6.0 4 ------- null}
- -t 0.545218461538462 -s 0 -d 2 -p tcp -e 1040 -c 1 -i 7 -a 1 -x {0.0 6.0 4 ------- null}
h -t 0.545218461538462 -s 0 -d 2 -p tcp -e 1040 -c 1 -i 7 -a 1 -x {0.0 6.0 -1 ------- null}
r -t 0.549378461538461 -s 2 -d 0 -p ack -e 40 -c 1 -i 5 -a 1 -x {6.0 0.0 2 ------- null}
+ -t 0.549378461538461 -s 0 -d 2 -p tcp -e 1040 -c 1 -i 8 -a 1 -x {0.0 6.0 5 ------- null}
+ -t 0.549378461538461 -s 0 -d 2 -p tcp -e 1040 -c 1 -i 9 -a 1 -x {0.0 6.0 6 ------- null}
- -t 0.549378461538462 -s 0 -d 2 -p tcp -e 1040 -c 1 -i 8 -a 1 -x {0.0 6.0 5 ------- null}
h -t 0.549378461538462 -s 0 -d 2 -p tcp -e 1040 -c 1 -i 8 -a 1 -x {0.0 6.0 -1 ------- null}
- -t 0.553538461538462 -s 0 -d 2 -p tcp -e 1040 -c 1 -i 9 -a 1 -x {0.0 6.0 6 ------- null}
h -t 0.553538461538462 -s 0 -d 2 -p tcp -e 1040 -c 1 -i 9 -a 1 -x {0.0 6.0 -1 ------- null}
r -t 0.555218461538461 -s 0 -d 2 -p tcp -e 1040 -c 1 -i 6 -a 1 -x {0.0 6.0 3 ------- null}
+ -t 0.555218461538461 -s 2 -d 4 -p tcp -e 1040 -c 1 -i 6 -a 1 -x {0.0 6.0 3 ------- null}
- -t 0.555218461538461 -s 2 -d 4 -p tcp -e 1040 -c 1 -i 6 -a 1 -x {0.0 6.0 3 ------- null}
h -t 0.555218461538461 -s 2 -d 4 -p tcp -e 1040 -c 1 -i 6 -a 1 -x {0.0 6.0 -1 ------- null}
r -t 0.559378461538461 -s 0 -d 2 -p tcp -e 1040 -c 1 -i 7 -a 1 -x {0.0 6.0 4 ------- null}
+ -t 0.559378461538461 -s 2 -d 4 -p tcp -e 1040 -c 1 -i 7 -a 1 -x {0.0 6.0 4 ------- null}
- -t 0.563538461538461 -s 2 -d 4 -p tcp -e 1040 -c 1 -i 7 -a 1 -x {0.0 6.0 4 ------- null}
h -t 0.563538461538461 -s 2 -d 4 -p tcp -e 1040 -c 1 -i 7 -a 1 -x {0.0 6.0 -1 ------- null}
r -t 0.563538461538462 -s 0 -d 2 -p tcp -e 1040 -c 1 -i 8 -a 1 -x {0.0 6.0 5 ------- null}
+ -t 0.563538461538462 -s 2 -d 4 -p tcp -e 1040 -c 1 -i 8 -a 1 -x {0.0 6.0 5 ------- null}
r -t 0.567698461538462 -s 0 -d 2 -p tcp -e 1040 -c 1 -i 9 -a 1 -x {0.0 6.0 6 ------- null}
+ -t 0.567698461538462 -s 2 -d 4 -p tcp -e 1040 -c 1 -i 9 -a 1 -x {0.0 6.0 6 ------- null}
- -t 0.571858461538461 -s 2 -d 4 -p tcp -e 1040 -c 1 -i 8 -a 1 -x {0.0 6.0 5 ------- null}
h -t 0.571858461538461 -s 2 -d 4 -p tcp -e 1040 -c 1 -i 8 -a 1 -x {0.0 6.0 -1 ------- null}
r -t 0.573538461538461 -s 2 -d 4 -p tcp -e 1040 -c 1 -i 6 -a 1 -x {0.0 6.0 3 ------- null}
+ -t 0.573538461538461 -s 4 -d 6 -p tcp -e 1040 -c 1 -i 6 -a 1 -x {0.0 6.0 3 ------- null}
- -t 0.573538461538461 -s 4 -d 6 -p tcp -e 1040 -c 1 -i 6 -a 1 -x {0.0 6.0 3 ------- null}
h -t 0.573538461538461 -s 4 -d 6 -p tcp -e 1040 -c 1 -i 6 -a 1 -x {0.0 6.0 -1 ------- null}
- -t 0.580178461538461 -s 2 -d 4 -p tcp -e 1040 -c 1 -i 9 -a 1 -x {0.0 6.0 6 ------- null}
h -t 0.580178461538461 -s 2 -d 4 -p tcp -e 1040 -c 1 -i 9 -a 1 -x {0.0 6.0 -1 ------- null}
r -t 0.581858461538461 -s 2 -d 4 -p tcp -e 1040 -c 1 -i 7 -a 1 -x {0.0 6.0 4 ------- null}
+ -t 0.581858461538461 -s 4 -d 6 -p tcp -e 1040 -c 1 -i 7 -a 1 -x {0.0 6.0 4 ------- null}
- -t 0.581858461538461 -s 4 -d 6 -p tcp -e 1040 -c 1 -i 7 -a 1 -x {0.0 6.0 4 ------- null}
h -t 0.581858461538461 -s 4 -d 6 -p tcp -e 1040 -c 1 -i 7 -a 1 -x {0.0 6.0 -1 ------- null}
r -t 0.589938461538461 -s 4 -d 6 -p tcp -e 1040 -c 1 -i 6 -a 1 -x {0.0 6.0 3 ------- null}
+ -t 0.589938461538461 -s 6 -d 4 -p ack -e 40 -c 1 -i 10 -a 1 -x {6.0 0.0 3 ------- null}
- -t 0.589938461538461 -s 6 -d 4 -p ack -e 40 -c 1 -i 10 -a 1 -x {6.0 0.0 3 ------- null}
h -t 0.589938461538461 -s 6 -d 4 -p ack -e 40 -c 1 -i 10 -a 1 -x {6.0 0.0 -1 ------- null}
r -t 0.590178461538461 -s 2 -d 4 -p tcp -e 1040 -c 1 -i 8 -a 1 -x {0.0 6.0 5 ------- null}
+ -t 0.590178461538461 -s 4 -d 6 -p tcp -e 1040 -c 1 -i 8 -a 1 -x {0.0 6.0 5 ------- null}
- -t 0.590178461538461 -s 4 -d 6 -p tcp -e 1040 -c 1 -i 8 -a 1 -x {0.0 6.0 5 ------- null}
h -t 0.590178461538461 -s 4 -d 6 -p tcp -e 1040 -c 1 -i 8 -a 1 -x {0.0 6.0 -1 ------- null}
r -t 0.598258461538461 -s 4 -d 6 -p tcp -e 1040 -c 1 -i 7 -a 1 -x {0.0 6.0 4 ------- null}
+ -t 0.598258461538461 -s 6 -d 4 -p ack -e 40 -c 1 -i 11 -a 1 -x {6.0 0.0 4 ------- null}
- -t 0.598258461538461 -s 6 -d 4 -p ack -e 40 -c 1 -i 11 -a 1 -x {6.0 0.0 4 ------- null}
h -t 0.598258461538461 -s 6 -d 4 -p ack -e 40 -c 1 -i 11 -a 1 -x {6.0 0.0 -1 ------- null}
r -t 0.598498461538461 -s 2 -d 4 -p tcp -e 1040 -c 1 -i 9 -a 1 -x {0.0 6.0 6 ------- null}
+ -t 0.598498461538461 -s 4 -d 6 -p tcp -e 1040 -c 1 -i 9 -a 1 -x {0.0 6.0 6 ------- null}
- -t 0.598498461538461 -s 4 -d 6 -p tcp -e 1040 -c 1 -i 9 -a 1 -x {0.0 6.0 6 ------- null}
h -t 0.598498461538461 -s 4 -d 6 -p tcp -e 1040 -c 1 -i 9 -a 1 -x {0.0 6.0 -1 ------- null}
r -t 0.600184615384615 -s 6 -d 4 -p ack -e 40 -c 1 -i 10 -a 1 -x {6.0 0.0 3 ------- null}
+ -t 0.600184615384615 -s 4 -d 2 -p ack -e 40 -c 1 -i 10 -a 1 -x {6.0 0.0 3 ------- null}
- -t 0.600184615384615 -s 4 -d 2 -p ack -e 40 -c 1 -i 10 -a 1 -x {6.0 0.0 3 ------- null}
h -t 0.600184615384615 -s 4 -d 2 -p ack -e 40 -c 1 -i 10 -a 1 -x {6.0 0.0 -1 ------- null}
r -t 0.606578461538461 -s 4 -d 6 -p tcp -e 1040 -c 1 -i 8 -a 1 -x {0.0 6.0 5 ------- null}
+ -t 0.606578461538461 -s 6 -d 4 -p ack -e 40 -c 1 -i 12 -a 1 -x {6.0 0.0 5 ------- null}
- -t 0.606578461538461 -s 6 -d 4 -p ack -e 40 -c 1 -i 12 -a 1 -x {6.0 0.0 5 ------- null}
h -t 0.606578461538461 -s 6 -d 4 -p ack -e 40 -c 1 -i 12 -a 1 -x {6.0 0.0 -1 ------- null}
r -t 0.608504615384615 -s 6 -d 4 -p ack -e 40 -c 1 -i 11 -a 1 -x {6.0 0.0 4 ------- null}
+ -t 0.608504615384615 -s 4 -d 2 -p ack -e 40 -c 1 -i 11 -a 1 -x {6.0 0.0 4 ------- null}
- -t 0.608504615384615 -s 4 -d 2 -p ack -e 40 -c 1 -i 11 -a 1 -x {6.0 0.0 4 ------- null}
h -t 0.608504615384615 -s 4 -d 2 -p ack -e 40 -c 1 -i 11 -a 1 -x {6.0 0.0 -1 ------- null}
r -t 0.610504615384615 -s 4 -d 2 -p ack -e 40 -c 1 -i 10 -a 1 -x {6.0 0.0 3 ------- null}
+ -t 0.610504615384615 -s 2 -d 0 -p ack -e 40 -c 1 -i 10 -a 1 -x {6.0 0.0 3 ------- null}
- -t 0.610504615384615 -s 2 -d 0 -p ack -e 40 -c 1 -i 10 -a 1 -x {6.0 0.0 3 ------- null}
h -t 0.610504615384615 -s 2 -d 0 -p ack -e 40 -c 1 -i 10 -a 1 -x {6.0 0.0 -1 ------- null}
r -t 0.614898461538461 -s 4 -d 6 -p tcp -e 1040 -c 1 -i 9 -a 1 -x {0.0 6.0 6 ------- null}
+ -t 0.614898461538461 -s 6 -d 4 -p ack -e 40 -c 1 -i 13 -a 1 -x {6.0 0.0 6 ------- null}
- -t 0.614898461538461 -s 6 -d 4 -p ack -e 40 -c 1 -i 13 -a 1 -x {6.0 0.0 6 ------- null}
h -t 0.614898461538461 -s 6 -d 4 -p ack -e 40 -c 1 -i 13 -a 1 -x {6.0 0.0 -1 ------- null}
r -t 0.616824615384615 -s 6 -d 4 -p ack -e 40 -c 1 -i 12 -a 1 -x {6.0 0.0 5 ------- null}
+ -t 0.616824615384615 -s 4 -d 2 -p ack -e 40 -c 1 -i 12 -a 1 -x {6.0 0.0 5 ------- null}
- -t 0.616824615384615 -s 4 -d 2 -p ack -e 40 -c 1 -i 12 -a 1 -x {6.0 0.0 5 ------- null}
h -t 0.616824615384615 -s 4 -d 2 -p ack -e 40 -c 1 -i 12 -a 1 -x {6.0 0.0 -1 ------- null}
r -t 0.618824615384615 -s 4 -d 2 -p ack -e 40 -c 1 -i 11 -a 1 -x {6.0 0.0 4 ------- null}
+ -t 0.618824615384615 -s 2 -d 0 -p ack -e 40 -c 1 -i 11 -a 1 -x {6.0 0.0 4 ------- null}
- -t 0.618824615384615 -s 2 -d 0 -p ack -e 40 -c 1 -i 11 -a 1 -x {6.0 0.0 4 ------- null}
h -t 0.618824615384615 -s 2 -d 0 -p ack -e 40 -c 1 -i 11 -a 1 -x {6.0 0.0 -1 ------- null}
r -t 0.620664615384615 -s 2 -d 0 -p ack -e 40 -c 1 -i 10 -a 1 -x {6.0 0.0 3 ------- null}
+ -t 0.620664615384615 -s 0 -d 2 -p tcp -e 1040 -c 1 -i 14 -a 1 -x {0.0 6.0 7 ------- null}
- -t 0.620664615384615 -s 0 -d 2 -p tcp -e 1040 -c 1 -i 14 -a 1 -x {0.0 6.0 7 ------- null}
h -t 0.620664615384615 -s 0 -d 2 -p tcp -e 1040 -c 1 -i 14 -a 1 -x {0.0 6.0 -1 ------- null}
+ -t 0.620664615384615 -s 0 -d 2 -p tcp -e 1040 -c 1 -i 15 -a 1 -x {0.0 6.0 8 ------- null}
- -t 0.624824615384615 -s 0 -d 2 -p tcp -e 1040 -c 1 -i 15 -a 1 -x {0.0 6.0 8 ------- null}
h -t 0.624824615384615 -s 0 -d 2 -p tcp -e 1040 -c 1 -i 15 -a 1 -x {0.0 6.0 -1 ------- null}
r -t 0.625144615384615 -s 6 -d 4 -p ack -e 40 -c 1 -i 13 -a 1 -x {6.0 0.0 6 ------- null}
+ -t 0.625144615384615 -s 4 -d 2 -p ack -e 40 -c 1 -i 13 -a 1 -x {6.0 0.0 6 ------- null}
- -t 0.625144615384615 -s 4 -d 2 -p ack -e 40 -c 1 -i 13 -a 1 -x {6.0 0.0 6 ------- null}
h -t 0.625144615384615 -s 4 -d 2 -p ack -e 40 -c 1 -i 13 -a 1 -x {6.0 0.0 -1 ------- null}
r -t 0.627144615384615 -s 4 -d 2 -p ack -e 40 -c 1 -i 12 -a 1 -x {6.0 0.0 5 ------- null}
+ -t 0.627144615384615 -s 2 -d 0 -p ack -e 40 -c 1 -i 12 -a 1 -x {6.0 0.0 5 ------- null}
- -t 0.627144615384615 -s 2 -d 0 -p ack -e 40 -c 1 -i 12 -a 1 -x {6.0 0.0 5 ------- null}
h -t 0.627144615384615 -s 2 -d 0 -p ack -e 40 -c 1 -i 12 -a 1 -x {6.0 0.0 -1 ------- null}
r -t 0.628984615384615 -s 2 -d 0 -p ack -e 40 -c 1 -i 11 -a 1 -x {6.0 0.0 4 ------- null}
+ -t 0.628984615384615 -s 0 -d 2 -p tcp -e 1040 -c 1 -i 16 -a 1 -x {0.0 6.0 9 ------- null}
+ -t 0.628984615384615 -s 0 -d 2 -p tcp -e 1040 -c 1 -i 17 -a 1 -x {0.0 6.0 10 ------- null}
- -t 0.628984615384615 -s 0 -d 2 -p tcp -e 1040 -c 1 -i 16 -a 1 -x {0.0 6.0 9 ------- null}
h -t 0.628984615384615 -s 0 -d 2 -p tcp -e 1040 -c 1 -i 16 -a 1 -x {0.0 6.0 -1 ------- null}
- -t 0.633144615384615 -s 0 -d 2 -p tcp -e 1040 -c 1 -i 17 -a 1 -x {0.0 6.0 10 ------- null}
h -t 0.633144615384615 -s 0 -d 2 -p tcp -e 1040 -c 1 -i 17 -a 1 -x {0.0 6.0 -1 ------- null}
r -t 0.634824615384615 -s 0 -d 2 -p tcp -e 1040 -c 1 -i 14 -a 1 -x {0.0 6.0 7 ------- null}
+ -t 0.634824615384615 -s 2 -d 4 -p tcp -e 1040 -c 1 -i 14 -a 1 -x {0.0 6.0 7 ------- null}
- -t 0.634824615384615 -s 2 -d 4 -p tcp -e 1040 -c 1 -i 14 -a 1 -x {0.0 6.0 7 ------- null}
h -t 0.634824615384615 -s 2 -d 4 -p tcp -e 1040 -c 1 -i 14 -a 1 -x {0.0 6.0 -1 ------- null}
r -t 0.635464615384615 -s 4 -d 2 -p ack -e 40 -c 1 -i 13 -a 1 -x {6.0 0.0 6 ------- null}
+ -t 0.635464615384615 -s 2 -d 0 -p ack -e 40 -c 1 -i 13 -a 1 -x {6.0 0.0 6 ------- null}
- -t 0.635464615384615 -s 2 -d 0 -p ack -e 40 -c 1 -i 13 -a 1 -x {6.0 0.0 6 ------- null}
h -t 0.635464615384615 -s 2 -d 0 -p ack -e 40 -c 1 -i 13 -a 1 -x {6.0 0.0 -1 ------- null}
r -t 0.637304615384615 -s 2 -d 0 -p ack -e 40 -c 1 -i 12 -a 1 -x {6.0 0.0 5 ------- null}
+ -t 0.637304615384615 -s 0 -d 2 -p tcp -e 1040 -c 1 -i 18 -a 1 -x {0.0 6.0 11 ------- null}
+ -t 0.637304615384615 -s 0 -d 2 -p tcp -e 1040 -c 1 -i 19 -a 1 -x {0.0 6.0 12 ------- null}
- -t 0.637304615384615 -s 0 -d 2 -p tcp -e 1040 -c 1 -i 18 -a 1 -x {0.0 6.0 11 ------- null}
h -t 0.637304615384615 -s 0 -d 2 -p tcp -e 1040 -c 1 -i 18 -a 1 -x {0.0 6.0 -1 ------- null}
r -t 0.638984615384615 -s 0 -d 2 -p tcp -e 1040 -c 1 -i 15 -a 1 -x {0.0 6.0 8 ------- null}
+ -t 0.638984615384615 -s 2 -d 4 -p tcp -e 1040 -c 1 -i 15 -a 1 -x {0.0 6.0 8 ------- null}
- -t 0.641464615384615 -s 0 -d 2 -p tcp -e 1040 -c 1 -i 19 -a 1 -x {0.0 6.0 12 ------- null}
h -t 0.641464615384615 -s 0 -d 2 -p tcp -e 1040 -c 1 -i 19 -a 1 -x {0.0 6.0 -1 ------- null}
- -t 0.643144615384615 -s 2 -d 4 -p tcp -e 1040 -c 1 -i 15 -a 1 -x {0.0 6.0 8 ------- null}
h -t 0.643144615384615 -s 2 -d 4 -p tcp -e 1040 -c 1 -i 15 -a 1 -x {0.0 6.0 -1 ------- null}
r -t 0.643144615384615 -s 0 -d 2 -p tcp -e 1040 -c 1 -i 16 -a 1 -x {0.0 6.0 9 ------- null}
+ -t 0.643144615384615 -s 2 -d 4 -p tcp -e 1040 -c 1 -i 16 -a 1 -x {0.0 6.0 9 ------- null}
r -t 0.645624615384615 -s 2 -d 0 -p ack -e 40 -c 1 -i 13 -a 1 -x {6.0 0.0 6 ------- null}
+ -t 0.645624615384615 -s 0 -d 2 -p tcp -e 1040 -c 1 -i 20 -a 1 -x {0.0 6.0 13 ------- null}
+ -t 0.645624615384615 -s 0 -d 2 -p tcp -e 1040 -c 1 -i 21 -a 1 -x {0.0 6.0 14 ------- null}
- -t 0.645624615384615 -s 0 -d 2 -p tcp -e 1040 -c 1 -i 20 -a 1 -x {0.0 6.0 13 ------- null}
h -t 0.645624615384615 -s 0 -d 2 -p tcp -e 1040 -c 1 -i 20 -a 1 -x {0.0 6.0 -1 ------- null}
r -t 0.647304615384615 -s 0 -d 2 -p tcp -e 1040 -c 1 -i 17 -a 1 -x {0.0 6.0 10 ------- null}
+ -t 0.647304615384615 -s 2 -d 4 -p tcp -e 1040 -c 1 -i 17 -a 1 -x {0.0 6.0 10 ------- null}
- -t 0.649784615384616 -s 0 -d 2 -p tcp -e 1040 -c 1 -i 21 -a 1 -x {0.0 6.0 14 ------- null}
h -t 0.649784615384616 -s 0 -d 2 -p tcp -e 1040 -c 1 -i 21 -a 1 -x {0.0 6.0 -1 ------- null}
- -t 0.651464615384615 -s 2 -d 4 -p tcp -e 1040 -c 1 -i 16 -a 1 -x {0.0 6.0 9 ------- null}
h -t 0.651464615384615 -s 2 -d 4 -p tcp -e 1040 -c 1 -i 16 -a 1 -x {0.0 6.0 -1 ------- null}
r -t 0.651464615384615 -s 0 -d 2 -p tcp -e 1040 -c 1 -i 18 -a 1 -x {0.0 6.0 11 ------- null}
+ -t 0.651464615384615 -s 2 -d 4 -p tcp -e 1040 -c 1 -i 18 -a 1 -x {0.0 6.0 11 ------- null}
r -t 0.653144615384615 -s 2 -d 4 -p tcp -e 1040 -c 1 -i 14 -a 1 -x {0.0 6.0 7 ------- null}
+ -t 0.653144615384615 -s 4 -d 6 -p tcp -e 1040 -c 1 -i 14 -a 1 -x {0.0 6.0 7 ------- null}
- -t 0.653144615384615 -s 4 -d 6 -p tcp -e 1040 -c 1 -i 14 -a 1 -x {0.0 6.0 7 ------- null}
h -t 0.653144615384615 -s 4 -d 6 -p tcp -e 1040 -c 1 -i 14 -a 1 -x {0.0 6.0 -1 ------- null}
r -t 0.655624615384615 -s 0 -d 2 -p tcp -e 1040 -c 1 -i 19 -a 1 -x {0.0 6.0 12 ------- null}
+ -t 0.655624615384615 -s 2 -d 4 -p tcp -e 1040 -c 1 -i 19 -a 1 -x {0.0 6.0 12 ------- null}
- -t 0.659784615384615 -s 2 -d 4 -p tcp -e 1040 -c 1 -i 17 -a 1 -x {0.0 6.0 10 ------- null}
h -t 0.659784615384615 -s 2 -d 4 -p tcp -e 1040 -c 1 -i 17 -a 1 -x {0.0 6.0 -1 ------- null}
r -t 0.659784615384615 -s 0 -d 2 -p tcp -e 1040 -c 1 -i 20 -a 1 -x {0.0 6.0 13 ------- null}
+ -t 0.659784615384615 -s 2 -d 4 -p tcp -e 1040 -c 1 -i 20 -a 1 -x {0.0 6.0 13 ------- null}
r -t 0.661464615384615 -s 2 -d 4 -p tcp -e 1040 -c 1 -i 15 -a 1 -x {0.0 6.0 8 ------- null}
+ -t 0.661464615384615 -s 4 -d 6 -p tcp -e 1040 -c 1 -i 15 -a 1 -x {0.0 6.0 8 ------- null}
- -t 0.661464615384615 -s 4 -d 6 -p tcp -e 1040 -c 1 -i 15 -a 1 -x {0.0 6.0 8 ------- null}
h -t 0.661464615384615 -s 4 -d 6 -p tcp -e 1040 -c 1 -i 15 -a 1 -x {0.0 6.0 -1 ------- null}
r -t 0.663944615384615 -s 0 -d 2 -p tcp -e 1040 -c 1 -i 21 -a 1 -x {0.0 6.0 14 ------- null}
+ -t 0.663944615384615 -s 2 -d 4 -p tcp -e 1040 -c 1 -i 21 -a 1 -x {0.0 6.0 14 ------- null}
d -t 0.663944615384615 -s 2 -d 4 -p tcp -e 1040 -c 1 -i 21 -a 1 -x {0.0 6.0 14 ------- null}
- -t 0.668104615384615 -s 2 -d 4 -p tcp -e 1040 -c 1 -i 18 -a 1 -x {0.0 6.0 11 ------- null}
h -t 0.668104615384615 -s 2 -d 4 -p tcp -e 1040 -c 1 -i 18 -a 1 -x {0.0 6.0 -1 ------- null}
r -t 0.669544615384615 -s 4 -d 6 -p tcp -e 1040 -c 1 -i 14 -a 1 -x {0.0 6.0 7 ------- null}
+ -t 0.669544615384615 -s 6 -d 4 -p ack -e 40 -c 1 -i 22 -a 1 -x {6.0 0.0 7 ------- null}
- -t 0.669544615384615 -s 6 -d 4 -p ack -e 40 -c 1 -i 22 -a 1 -x {6.0 0.0 7 ------- null}
h -t 0.669544615384615 -s 6 -d 4 -p ack -e 40 -c 1 -i 22 -a 1 -x {6.0 0.0 -1 ------- null}
r -t 0.669784615384615 -s 2 -d 4 -p tcp -e 1040 -c 1 -i 16 -a 1 -x {0.0 6.0 9 ------- null}
+ -t 0.669784615384615 -s 4 -d 6 -p tcp -e 1040 -c 1 -i 16 -a 1 -x {0.0 6.0 9 ------- null}
- -t 0.669784615384615 -s 4 -d 6 -p tcp -e 1040 -c 1 -i 16 -a 1 -x {0.0 6.0 9 ------- null}
h -t 0.669784615384615 -s 4 -d 6 -p tcp -e 1040 -c 1 -i 16 -a 1 -x {0.0 6.0 -1 ------- null}
- -t 0.676424615384615 -s 2 -d 4 -p tcp -e 1040 -c 1 -i 19 -a 1 -x {0.0 6.0 12 ------- null}
h -t 0.676424615384615 -s 2 -d 4 -p tcp -e 1040 -c 1 -i 19 -a 1 -x {0.0 6.0 -1 ------- null}
r -t 0.677864615384615 -s 4 -d 6 -p tcp -e 1040 -c 1 -i 15 -a 1 -x {0.0 6.0 8 ------- null}
+ -t 0.677864615384615 -s 6 -d 4 -p ack -e 40 -c 1 -i 23 -a 1 -x {6.0 0.0 8 ------- null}
- -t 0.677864615384615 -s 6 -d 4 -p ack -e 40 -c 1 -i 23 -a 1 -x {6.0 0.0 8 ------- null}
h -t 0.677864615384615 -s 6 -d 4 -p ack -e 40 -c 1 -i 23 -a 1 -x {6.0 0.0 -1 ------- null}
r -t 0.678104615384615 -s 2 -d 4 -p tcp -e 1040 -c 1 -i 17 -a 1 -x {0.0 6.0 10 ------- null}
+ -t 0.678104615384615 -s 4 -d 6 -p tcp -e 1040 -c 1 -i 17 -a 1 -x {0.0 6.0 10 ------- null}
- -t 0.678104615384615 -s 4 -d 6 -p tcp -e 1040 -c 1 -i 17 -a 1 -x {0.0 6.0 10 ------- null}
h -t 0.678104615384615 -s 4 -d 6 -p tcp -e 1040 -c 1 -i 17 -a 1 -x {0.0 6.0 -1 ------- null}
r -t 0.679790769230769 -s 6 -d 4 -p ack -e 40 -c 1 -i 22 -a 1 -x {6.0 0.0 7 ------- null}
+ -t 0.679790769230769 -s 4 -d 2 -p ack -e 40 -c 1 -i 22 -a 1 -x {6.0 0.0 7 ------- null}
- -t 0.679790769230769 -s 4 -d 2 -p ack -e 40 -c 1 -i 22 -a 1 -x {6.0 0.0 7 ------- null}
h -t 0.679790769230769 -s 4 -d 2 -p ack -e 40 -c 1 -i 22 -a 1 -x {6.0 0.0 -1 ------- null}
- -t 0.684744615384615 -s 2 -d 4 -p tcp -e 1040 -c 1 -i 20 -a 1 -x {0.0 6.0 13 ------- null}
h -t 0.684744615384615 -s 2 -d 4 -p tcp -e 1040 -c 1 -i 20 -a 1 -x {0.0 6.0 -1 ------- null}
r -t 0.686184615384615 -s 4 -d 6 -p tcp -e 1040 -c 1 -i 16 -a 1 -x {0.0 6.0 9 ------- null}
+ -t 0.686184615384615 -s 6 -d 4 -p ack -e 40 -c 1 -i 24 -a 1 -x {6.0 0.0 9 ------- null}
- -t 0.686184615384615 -s 6 -d 4 -p ack -e 40 -c 1 -i 24 -a 1 -x {6.0 0.0 9 ------- null}
h -t 0.686184615384615 -s 6 -d 4 -p ack -e 40 -c 1 -i 24 -a 1 -x {6.0 0.0 -1 ------- null}
r -t 0.686424615384615 -s 2 -d 4 -p tcp -e 1040 -c 1 -i 18 -a 1 -x {0.0 6.0 11 ------- null}
+ -t 0.686424615384615 -s 4 -d 6 -p tcp -e 1040 -c 1 -i 18 -a 1 -x {0.0 6.0 11 ------- null}
- -t 0.686424615384615 -s 4 -d 6 -p tcp -e 1040 -c 1 -i 18 -a 1 -x {0.0 6.0 11 ------- null}
h -t 0.686424615384615 -s 4 -d 6 -p tcp -e 1040 -c 1 -i 18 -a 1 -x {0.0 6.0 -1 ------- null}
r -t 0.688110769230769 -s 6 -d 4 -p ack -e 40 -c 1 -i 23 -a 1 -x {6.0 0.0 8 ------- null}
+ -t 0.688110769230769 -s 4 -d 2 -p ack -e 40 -c 1 -i 23 -a 1 -x {6.0 0.0 8 ------- null}
- -t 0.688110769230769 -s 4 -d 2 -p ack -e 40 -c 1 -i 23 -a 1 -x {6.0 0.0 8 ------- null}
h -t 0.688110769230769 -s 4 -d 2 -p ack -e 40 -c 1 -i 23 -a 1 -x {6.0 0.0 -1 ------- null}
r -t 0.690110769230769 -s 4 -d 2 -p ack -e 40 -c 1 -i 22 -a 1 -x {6.0 0.0 7 ------- null}
+ -t 0.690110769230769 -s 2 -d 0 -p ack -e 40 -c 1 -i 22 -a 1 -x {6.0 0.0 7 ------- null}
- -t 0.690110769230769 -s 2 -d 0 -p ack -e 40 -c 1 -i 22 -a 1 -x {6.0 0.0 7 ------- null}
h -t 0.690110769230769 -s 2 -d 0 -p ack -e 40 -c 1 -i 22 -a 1 -x {6.0 0.0 -1 ------- null}
r -t 0.694504615384615 -s 4 -d 6 -p tcp -e 1040 -c 1 -i 17 -a 1 -x {0.0 6.0 10 ------- null}
+ -t 0.694504615384615 -s 6 -d 4 -p ack -e 40 -c 1 -i 25 -a 1 -x {6.0 0.0 10 ------- null}
- -t 0.694504615384615 -s 6 -d 4 -p ack -e 40 -c 1 -i 25 -a 1 -x {6.0 0.0 10 ------- null}
h -t 0.694504615384615 -s 6 -d 4 -p ack -e 40 -c 1 -i 25 -a 1 -x {6.0 0.0 -1 ------- null}
r -t 0.694744615384615 -s 2 -d 4 -p tcp -e 1040 -c 1 -i 19 -a 1 -x {0.0 6.0 12 ------- null}
+ -t 0.694744615384615 -s 4 -d 6 -p tcp -e 1040 -c 1 -i 19 -a 1 -x {0.0 6.0 12 ------- null}
- -t 0.694744615384615 -s 4 -d 6 -p tcp -e 1040 -c 1 -i 19 -a 1 -x {0.0 6.0 12 ------- null}
h -t 0.694744615384615 -s 4 -d 6 -p tcp -e 1040 -c 1 -i 19 -a 1 -x {0.0 6.0 -1 ------- null}
r -t 0.696430769230769 -s 6 -d 4 -p ack -e 40 -c 1 -i 24 -a 1 -x {6.0 0.0 9 ------- null}
+ -t 0.696430769230769 -s 4 -d 2 -p ack -e 40 -c 1 -i 24 -a 1 -x {6.0 0.0 9 ------- null}
- -t 0.696430769230769 -s 4 -d 2 -p ack -e 40 -c 1 -i 24 -a 1 -x {6.0 0.0 9 ------- null}
h -t 0.696430769230769 -s 4 -d 2 -p ack -e 40 -c 1 -i 24 -a 1 -x {6.0 0.0 -1 ------- null}
r -t 0.698430769230769 -s 4 -d 2 -p ack -e 40 -c 1 -i 23 -a 1 -x {6.0 0.0 8 ------- null}
+ -t 0.698430769230769 -s 2 -d 0 -p ack -e 40 -c 1 -i 23 -a 1 -x {6.0 0.0 8 ------- null}
- -t 0.698430769230769 -s 2 -d 0 -p ack -e 40 -c 1 -i 23 -a 1 -x {6.0 0.0 8 ------- null}
h -t 0.698430769230769 -s 2 -d 0 -p ack -e 40 -c 1 -i 23 -a 1 -x {6.0 0.0 -1 ------- null}
r -t 0.700270769230769 -s 2 -d 0 -p ack -e 40 -c 1 -i 22 -a 1 -x {6.0 0.0 7 ------- null}
+ -t 0.700270769230769 -s 0 -d 2 -p tcp -e 1040 -c 1 -i 26 -a 1 -x {0.0 6.0 15 ------- null}
- -t 0.700270769230769 -s 0 -d 2 -p tcp -e 1040 -c 1 -i 26 -a 1 -x {0.0 6.0 15 ------- null}
h -t 0.700270769230769 -s 0 -d 2 -p tcp -e 1040 -c 1 -i 26 -a 1 -x {0.0 6.0 -1 ------- null}
+ -t 0.700270769230769 -s 0 -d 2 -p tcp -e 1040 -c 1 -i 27 -a 1 -x {0.0 6.0 16 ------- null}
r -t 0.702824615384615 -s 4 -d 6 -p tcp -e 1040 -c 1 -i 18 -a 1 -x {0.0 6.0 11 ------- null}
+ -t 0.702824615384615 -s 6 -d 4 -p ack -e 40 -c 1 -i 28 -a 1 -x {6.0 0.0 11 ------- null}
- -t 0.702824615384615 -s 6 -d 4 -p ack -e 40 -c 1 -i 28 -a 1 -x {6.0 0.0 11 ------- null}
h -t 0.702824615384615 -s 6 -d 4 -p ack -e 40 -c 1 -i 28 -a 1 -x {6.0 0.0 -1 ------- null}
r -t 0.703064615384615 -s 2 -d 4 -p tcp -e 1040 -c 1 -i 20 -a 1 -x {0.0 6.0 13 ------- null}
+ -t 0.703064615384615 -s 4 -d 6 -p tcp -e 1040 -c 1 -i 20 -a 1 -x {0.0 6.0 13 ------- null}
- -t 0.703064615384615 -s 4 -d 6 -p tcp -e 1040 -c 1 -i 20 -a 1 -x {0.0 6.0 13 ------- null}
h -t 0.703064615384615 -s 4 -d 6 -p tcp -e 1040 -c 1 -i 20 -a 1 -x {0.0 6.0 -1 ------- null}
- -t 0.704430769230769 -s 0 -d 2 -p tcp -e 1040 -c 1 -i 27 -a 1 -x {0.0 6.0 16 ------- null}
h -t 0.704430769230769 -s 0 -d 2 -p tcp -e 1040 -c 1 -i 27 -a 1 -x {0.0 6.0 -1 ------- null}
r -t 0.704750769230769 -s 6 -d 4 -p ack -e 40 -c 1 -i 25 -a 1 -x {6.0 0.0 10 ------- null}
+ -t 0.704750769230769 -s 4 -d 2 -p ack -e 40 -c 1 -i 25 -a 1 -x {6.0 0.0 10 ------- null}
- -t 0.704750769230769 -s 4 -d 2 -p ack -e 40 -c 1 -i 25 -a 1 -x {6.0 0.0 10 ------- null}
h -t 0.704750769230769 -s 4 -d 2 -p ack -e 40 -c 1 -i 25 -a 1 -x {6.0 0.0 -1 ------- null}
r -t 0.706750769230769 -s 4 -d 2 -p ack -e 40 -c 1 -i 24 -a 1 -x {6.0 0.0 9 ------- null}
+ -t 0.706750769230769 -s 2 -d 0 -p ack -e 40 -c 1 -i 24 -a 1 -x {6.0 0.0 9 ------- null}
- -t 0.706750769230769 -s 2 -d 0 -p ack -e 40 -c 1 -i 24 -a 1 -x {6.0 0.0 9 ------- null}
h -t 0.706750769230769 -s 2 -d 0 -p ack -e 40 -c 1 -i 24 -a 1 -x {6.0 0.0 -1 ------- null}
r -t 0.708590769230769 -s 2 -d 0 -p ack -e 40 -c 1 -i 23 -a 1 -x {6.0 0.0 8 ------- null}
+ -t 0.708590769230769 -s 0 -d 2 -p tcp -e 1040 -c 1 -i 29 -a 1 -x {0.0 6.0 17 ------- null}
+ -t 0.708590769230769 -s 0 -d 2 -p tcp -e 1040 -c 1 -i 30 -a 1 -x {0.0 6.0 18 ------- null}
- -t 0.708590769230769 -s 0 -d 2 -p tcp -e 1040 -c 1 -i 29 -a 1 -x {0.0 6.0 17 ------- null}
h -t 0.708590769230769 -s 0 -d 2 -p tcp -e 1040 -c 1 -i 29 -a 1 -x {0.0 6.0 -1 ------- null}
r -t 0.711144615384615 -s 4 -d 6 -p tcp -e 1040 -c 1 -i 19 -a 1 -x {0.0 6.0 12 ------- null}
+ -t 0.711144615384615 -s 6 -d 4 -p ack -e 40 -c 1 -i 31 -a 1 -x {6.0 0.0 12 ------- null}
- -t 0.711144615384615 -s 6 -d 4 -p ack -e 40 -c 1 -i 31 -a 1 -x {6.0 0.0 12 ------- null}
h -t 0.711144615384615 -s 6 -d 4 -p ack -e 40 -c 1 -i 31 -a 1 -x {6.0 0.0 -1 ------- null}
- -t 0.712750769230769 -s 0 -d 2 -p tcp -e 1040 -c 1 -i 30 -a 1 -x {0.0 6.0 18 ------- null}
h -t 0.712750769230769 -s 0 -d 2 -p tcp -e 1040 -c 1 -i 30 -a 1 -x {0.0 6.0 -1 ------- null}