+ 0.4 0 2 tcp 40 ------- 1 0.0 6.0 0 0
- 0.4 0 2 tcp 40 ------- 1 0.0 6.0 0 0
r 0.41016 0 2 tcp 40 ------- 1 0.0 6.0 0 0
+ 0.41016 2 4 tcp 40 ------- 1 0.0 6.0 0 0
- 0.41016 2 4 tcp 40 ------- 1 0.0 6.0 0 0
r 0.42048 2 4 tcp 40 ------- 1 0.0 6.0 0 0
+ 0.42048 4 6 tcp 40 ------- 1 0.0 6.0 0 0
- 0.42048 4 6 tcp 40 ------- 1 0.0 6.0 0 0
r 0.430726 4 6 tcp 40 ------- 1 0.0 6.0 0 0
+ 0.430726 6 4 ack 40 ------- 1 6.0 0.0 0 1
- 0.430726 6 4 ack 40 ------- 1 6.0 0.0 0 1
r 0.440972 6 4 ack 40 ------- 1 6.0 0.0 0 1
+ 0.440972 4 2 ack 40 ------- 1 6.0 0.0 0 1
- 0.440972 4 2 ack 40 ------- 1 6.0 0.0 0 1
r 0.451292 4 2 ack 40 ------- 1 6.0 0.0 0 1
+ 0.451292 2 0 ack 40 ------- 1 6.0 0.0 0 1
- 0.451292 2 0 ack 40 ------- 1 6.0 0.0 0 1
r 0.461452 2 0 ack 40 ------- 1 6.0 0.0 0 1
+ 0.461452 0 2 tcp 1040 ------- 1 0.0 6.0 1 2
- 0.461452 0 2 tcp 1040 ------- 1 0.0 6.0 1 2
+ 0.461452 0 2 tcp 1040 ------- 1 0.0 6.0 2 3
- 0.465612 0 2 tcp 1040 ------- 1 0.0 6.0 2 3
r 0.475612 0 2 tcp 1040 ------- 1 0.0 6.0 1 2
+ 0.475612 2 4 tcp 1040 ------- 1 0.0 6.0 1 2
- 0.475612 2 4 tcp 1040 ------- 1 0.0 6.0 1 2
r 0.479772 0 2 tcp 1040 ------- 1 0.0 6.0 2 3
+ 0.479772 2 4 tcp 1040 ------- 1 0.0 6.0 2 3
- 0.483932 2 4 tcp 1040 ------- 1 0.0 6.0 2 3
r 0.493932 2 4 tcp 1040 ------- 1 0.0 6.0 1 2
+ 0.493932 4 6 tcp 1040 ------- 1 0.0 6.0 1 2
- 0.493932 4 6 tcp 1040 ------- 1 0.0 6.0 1 2
r 0.502252 2 4 tcp 1040 ------- 1 0.0 6.0 2 3
+ 0.502252 4 6 tcp 1040 ------- 1 0.0 6.0 2 3
- 0.502252 4 6 tcp 1040 ------- 1 0.0 6.0 2 3
r 0.510332 4 6 tcp 1040 ------- 1 0.0 6.0 1 2
+ 0.510332 6 4 ack 40 ------- 1 6.0 0.0 1 4
- 0.510332 6 4 ack 40 ------- 1 6.0 0.0 1 4
r 0.518652 4 6 tcp 1040 ------- 1 0.0 6.0 2 3
+ 0.518652 6 4 ack 40 ------- 1 6.0 0.0 2 5
- 0.518652 6 4 ack 40 ------- 1 6.0 0.0 2 5
r 0.520578 6 4 ack 40 ------- 1 6.0 0.0 1 4
+ 0.520578 4 2 ack 40 ------- 1 6.0 0.0 1 4
- 0.520578 4 2 ack 40 ------- 1 6.0 0.0 1 4
r 0.528898 6 4 ack 40 ------- 1 6.0 0.0 2 5
+ 0.528898 4 2 ack 40 ------- 1 6.0 0.0 2 5
- 0.528898 4 2 ack 40 ------- 1 6.0 0.0 2 5
r 0.530898 4 2 ack 40 ------- 1 6.0 0.0 1 4
+ 0.530898 2 0 ack 40 ------- 1 6.0 0.0 1 4
- 0.530898 2 0 ack 40 ------- 1 6.0 0.0 1 4
r 0.539218 4 2 ack 40 ------- 1 6.0 0.0 2 5
+ 0.539218 2 0 ack 40 ------- 1 6.0 0.0 2 5
- 0.539218 2 0 ack 40 ------- 1 6.0 0.0 2 5
r 0.541058 2 0 ack 40 ------- 1 6.0 0.0 1 4
+ 0.541058 0 2 tcp 1040 ------- 1 0.0 6.0 3 6
- 0.541058 0 2 tcp 1040 ------- 1 0.0 6.0 3 6
+ 0.541058 0 2 tcp 1040 ------- 1 0.0 6.0 4 7
- 0.545218 0 2 tcp 1040 ------- 1 0.0 6.0 4 7
r 0.549378 2 0 ack 40 ------- 1 6.0 0.0 2 5
+ 0.549378 0 2 tcp 1040 ------- 1 0.0 6.0 5 8
+ 0.549378 0 2 tcp 1040 ------- 1 0.0 6.0 6 9
- 0.549378 0 2 tcp 1040 ------- 1 0.0 6.0 5 8
- 0.553538 0 2 tcp 1040 ------- 1 0.0 6.0 6 9
r 0.555218 0 2 tcp 1040 ------- 1 0.0 6.0 3 6
+ 0.555218 2 4 tcp 1040 ------- 1 0.0 6.0 3 6
- 0.555218 2 4 tcp 1040 ------- 1 0.0 6.0 3 6
r 0.559378 0 2 tcp 1040 ------- 1 0.0 6.0 4 7
+ 0.559378 2 4 tcp 1040 ------- 1 0.0 6.0 4 7
- 0.563538 2 4 tcp 1040 ------- 1 0.0 6.0 4 7
r 0.563538 0 2 tcp 1040 ------- 1 0.0 6.0 5 8
+ 0.563538 2 4 tcp 1040 ------- 1 0.0 6.0 5 8
r 0.567698 0 2 tcp 1040 ------- 1 0.0 6.0 6 9
+ 0.567698 2 4 tcp 1040 ------- 1 0.0 6.0 6 9
- 0.571858 2 4 tcp 1040 ------- 1 0.0 6.0 5 8
r 0.573538 2 4 tcp 1040 ------- 1 0.0 6.0 3 6
+ 0.573538 4 6 tcp 1040 ------- 1 0.0 6.0 3 6
- 0.573538 4 6 tcp 1040 ------- 1 0.0 6.0 3 6
- 0.580178 2 4 tcp 1040 ------- 1 0.0 6.0 6 9
r 0.581858 2 4 tcp 1040 ------- 1 0.0 6.0 4 7
+ 0.581858 4 6 tcp 1040 ------- 1 0.0 6.0 4 7
- 0.581858 4 6 tcp 1040 ------- 1 0.0 6.0 4 7
r 0.589938 4 6 tcp 1040 ------- 1 0.0 6.0 3 6
+ 0.589938 6 4 ack 40 ------- 1 6.0 0.0 3 10
- 0.589938 6 4 ack 40 ------- 1 6.0 0.0 3 10
r 0.590178 2 4 tcp 1040 ------- 1 0.0 6.0 5 8
+ 0.590178 4 6 tcp 1040 ------- 1 0.0 6.0 5 8
- 0.590178 4 6 tcp 1040 ------- 1 0.0 6.0 5 8
r 0.598258 4 6 tcp 1040 ------- 1 0.0 6.0 4 7
+ 0.598258 6 4 ack 40 ------- 1 6.0 0.0 4 11
- 0.598258 6 4 ack 40 ------- 1 6.0 0.0 4 11
r 0.598498 2 4 tcp 1040 ------- 1 0.0 6.0 6 9
+ 0.598498 4 6 tcp 1040 ------- 1 0.0 6.0 6 9
- 0.598498 4 6 tcp 1040 ------- 1 0.0 6.0 6 9
r 0.600185 6 4 ack 40 ------- 1 6.0 0.0 3 10
+ 0.600185 4 2 ack 40 ------- 1 6.0 0.0 3 10
- 0.600185 4 2 ack 40 ------- 1 6.0 0.0 3 10
r 0.606578 4 6 tcp 1040 ------- 1 0.0 6.0 5 8
+ 0.606578 6 4 ack 40 ------- 1 6.0 0.0 5 12
- 0.606578 6 4 ack 40 ------- 1 6.0 0.0 5 12
r 0.608505 6 4 ack 40 ------- 1 6.0 0.0 4 11
+ 0.608505 4 2 ack 40 ------- 1 6.0 0.0 4 11
- 0.608505 4 2 ack 40 ------- 1 6.0 0.0 4 11
r 0.610505 4 2 ack 40 ------- 1 6.0 0.0 3 10
+ 0.610505 2 0 ack 40 ------- 1 6.0 0.0 3 10
- 0.610505 2 0 ack 40 ------- 1 6.0 0.0 3 10
r 0.614898 4 6 tcp 1040 ------- 1 0.0 6.0 6 9
+ 0.614898 6 4 ack 40 ------- 1 6.0 0.0 6 13
- 0.614898 6 4 ack 40 ------- 1 6.0 0.0 6 13
r 0.616825 6 4 ack 40 ------- 1 6.0 0.0 5 12
+ 0.616825 4 2 ack 40 ------- 1 6.0 0.0 5 12
- 0.616825 4 2 ack 40 ------- 1 6.0 0.0 5 12
r 0.618825 4 2 ack 40 ------- 1 6.0 0.0 4 11
+ 0.618825 2 0 ack 40 ------- 1 6.0 0.0 4 11
- 0.618825 2 0 ack 40 ------- 1 6.0 0.0 4 11
r 0.620665 2 0 ack 40 ------- 1 6.0 0.0 3 10
+ 0.620665 0 2 tcp 1040 ------- 1 0.0 6.0 7 14
- 0.620665 0 2 tcp 1040 ------- 1 0.0 6.0 7 14
+ 0.620665 0 2 tcp 1040 ------- 1 0.0 6.0 8 15
- 0.624825 0 2 tcp 1040 ------- 1 0.0 6.0 8 15
r 0.625145 6 4 ack 40 ------- 1 6.0 0.0 6 13
+ 0.625145 4 2 ack 40 ------- 1 6.0 0.0 6 13
- 0.625145 4 2 ack 40 ------- 1 6.0 0.0 6 13
r 0.627145 4 2 ack 40 ------- 1 6.0 0.0 5 12
+ 0.627145 2 0 ack 40 ------- 1 6.0 0.0 5 12
- 0.627145 2 0 ack 40 ------- 1 6.0 0.0 5 12
r 0.628985 2 0 ack 40 ------- 1 6.0 0.0 4 11
+ 0.628985 0 2 tcp 1040 ------- 1 0.0 6.0 9 16
+ 0.628985 0 2 tcp 1040 ------- 1 0.0 6.0 10 17
- 0.628985 0 2 tcp 1040 ------- 1 0.0 6.0 9 16
- 0.633145 0 2 tcp 1040 ------- 1 0.0 6.0 10 17
r 0.634825 0 2 tcp 1040 ------- 1 0.0 6.0 7 14
+ 0.634825 2 4 tcp 1040 ------- 1 0.0 6.0 7 14
- 0.634825 2 4 tcp 1040 ------- 1 0.0 6.0 7 14
r 0.635465 4 2 ack 40 ------- 1 6.0 0.0 6 13
+ 0.635465 2 0 ack 40 ------- 1 6.0 0.0 6 13
- 0.635465 2 0 ack 40 ------- 1 6.0 0.0 6 13
r 0.637305 2 0 ack 40 ------- 1 6.0 0.0 5 12
+ 0.637305 0 2 tcp 1040 ------- 1 0.0 6.0 11 18
+ 0.637305 0 2 tcp 1040 ------- 1 0.0 6.0 12 19
- 0.637305 0 2 tcp 1040 ------- 1 0.0 6.0 11 18
r 0.638985 0 2 tcp 1040 ------- 1 0.0 6.0 8 15
+ 0.638985 2 4 tcp 1040 ------- 1 0.0 6.0 8 15
- 0.641465 0 2 tcp 1040 ------- 1 0.0 6.0 12 19
- 0.643145 2 4 tcp 1040 ------- 1 0.0 6.0 8 15
r 0.643145 0 2 tcp 1040 ------- 1 0.0 6.0 9 16
+ 0.643145 2 4 tcp 1040 ------- 1 0.0 6.0 9 16
r 0.645625 2 0 ack 40 ------- 1 6.0 0.0 6 13
+ 0.645625 0 2 tcp 1040 ------- 1 0.0 6.0 13 20
+ 0.645625 0 2 tcp 1040 ------- 1 0.0 6.0 14 21
- 0.645625 0 2 tcp 1040 ------- 1 0.0 6.0 13 20
r 0.647305 0 2 tcp 1040 ------- 1 0.0 6.0 10 17
+ 0.647305 2 4 tcp 1040 ------- 1 0.0 6.0 10 17
- 0.649785 0 2 tcp 1040 ------- 1 0.0 6.0 14 21
- 0.651465 2 4 tcp 1040 ------- 1 0.0 6.0 9 16
r 0.651465 0 2 tcp 1040 ------- 1 0.0 6.0 11 18
+ 0.651465 2 4 tcp 1040 ------- 1 0.0 6.0 11 18
r 0.653145 2 4 tcp 1040 ------- 1 0.0 6.0 7 14
+ 0.653145 4 6 tcp 1040 ------- 1 0.0 6.0 7 14
- 0.653145 4 6 tcp 1040 ------- 1 0.0 6.0 7 14
r 0.655625 0 2 tcp 1040 ------- 1 0.0 6.0 12 19
+ 0.655625 2 4 tcp 1040 ------- 1 0.0 6.0 12 19
- 0.659785 2 4 tcp 1040 ------- 1 0.0 6.0 10 17
r 0.659785 0 2 tcp 1040 ------- 1 0.0 6.0 13 20
+ 0.659785 2 4 tcp 1040 ------- 1 0.0 6.0 13 20
r 0.661465 2 4 tcp 1040 ------- 1 0.0 6.0 8 15
+ 0.661465 4 6 tcp 1040 ------- 1 0.0 6.0 8 15
- 0.661465 4 6 tcp 1040 ------- 1 0.0 6.0 8 15
r 0.663945 0 2 tcp 1040 ------- 1 0.0 6.0 14 21
+ 0.663945 2 4 tcp 1040 ------- 1 0.0 6.0 14 21
d 0.663945 2 4 tcp 1040 ------- 1 0.0 6.0 14 21
- 0.668105 2 4 tcp 1040 ------- 1 0.0 6.0 11 18
r 0.669545 4 6 tcp 1040 ------- 1 0.0 6.0 7 14
+ 0.669545 6 4 ack 40 ------- 1 6.0 0.0 7 22
- 0.669545 6 4 ack 40 ------- 1 6.0 0.0 7 22
r 0.669785 2 4 tcp 1040 ------- 1 0.0 6.0 9 16
+ 0.669785 4 6 tcp 1040 ------- 1 0.0 6.0 9 16
- 0.669785 4 6 tcp 1040 ------- 1 0.0 6.0 9 16
- 0.676425 2 4 tcp 1040 ------- 1 0.0 6.0 12 19
r 0.677865 4 6 tcp 1040 ------- 1 0.0 6.0 8 15
+ 0.677865 6 4 ack 40 ------- 1 6.0 0.0 8 23
- 0.677865 6 4 ack 40 ------- 1 6.0 0.0 8 23
r 0.678105 2 4 tcp 1040 ------- 1 0.0 6.0 10 17
+ 0.678105 4 6 tcp 1040 ------- 1 0.0 6.0 10 17
- 0.678105 4 6 tcp 1040 ------- 1 0.0 6.0 10 17
r 0.679791 6 4 ack 40 ------- 1 6.0 0.0 7 22
+ 0.679791 4 2 ack 40 ------- 1 6.0 0.0 7 22
- 0.679791 4 2 ack 40 ------- 1 6.0 0.0 7 22
- 0.684745 2 4 tcp 1040 ------- 1 0.0 6.0 13 20
r 0.686185 4 6 tcp 1040 ------- 1 0.0 6.0 9 16
+ 0.686185 6 4 ack 40 ------- 1 6.0 0.0 9 24
- 0.686185 6 4 ack 40 ------- 1 6.0 0.0 9 24
r 0.686425 2 4 tcp 1040 ------- 1 0.0 6.0 11 18
+ 0.686425 4 6 tcp 1040 ------- 1 0.0 6.0 11 18
- 0.686425 4 6 tcp 1040 ------- 1 0.0 6.0 11 18
r 0.688111 6 4 ack 40 ------- 1 6.0 0.0 8 23
+ 0.688111 4 2 ack 40 ------- 1 6.0 0.0 8 23
- 0.688111 4 2 ack 40 ------- 1 6.0 0.0 8 23
r 0.690111 4 2 ack 40 ------- 1 6.0 0.0 7 22
+ 0.690111 2 0 ack 40 ------- 1 6.0 0.0 7 22
- 0.690111 2 0 ack 40 ------- 1 6.0 0.0 7 22
r 0.694505 4 6 tcp 1040 ------- 1 0.0 6.0 10 17
+ 0.694505 6 4 ack 40 ------- 1 6.0 0.0 10 25
- 0.694505 6 4 ack 40 ------- 1 6.0 0.0 10 25
r 0.694745 2 4 tcp 1040 ------- 1 0.0 6.0 12 19
+ 0.694745 4 6 tcp 1040 ------- 1 0.0 6.0 12 19
- 0.694745 4 6 tcp 1040 ------- 1 0.0 6.0 12 19
r 0.696431 6 4 ack 40 ------- 1 6.0 0.0 9 24
+ 0.696431 4 2 ack 40 ------- 1 6.0 0.0 9 24
- 0.696431 4 2 ack 40 ------- 1 6.0 0.0 9 24
r 0.698431 4 2 ack 40 ------- 1 6.0 0.0 8 23
+ 0.698431 2 0 ack 40 ------- 1 6.0 0.0 8 23
- 0.698431 2 0 ack 40 ------- 1 6.0 0.0 8 23
r 0.700271 2 0 ack 40 ------- 1 6.0 0.0 7 22
+ 0.700271 0 2 tcp 1040 ------- 1 0.0 6.0 15 26
- 0.700271 0 2 tcp 1040 ------- 1 0.0 6.0 15 26
+ 0.700271 0 2 tcp 1040 ------- 1 0.0 6.0 16 27
r 0.702825 4 6 tcp 1040 ------- 1 0.0 6.0 11 18
+ 0.702825 6 4 ack 40 ------- 1 6.0 0.0 11 28
- 0.702825 6 4 ack 40 ------- 1 6.0 0.0 11 28
r 0.703065 2 4 tcp 1040 ------- 1 0.0 6.0 13 20
+ 0.703065 4 6 tcp 1040 ------- 1 0.0 6.0 13 20
- 0.703065 4 6 tcp 1040 ------- 1 0.0 6.0 13 20
- 0.704431 0 2 tcp 1040 ------- 1 0.0 6.0 16 27
r 0.704751 6 4 ack 40 ------- 1 6.0 0.0 10 25
+ 0.704751 4 2 ack 40 ------- 1 6.0 0.0 10 25
- 0.704751 4 2 ack 40 ------- 1 6.0 0.0 10 25
r 0.706751 4 2 ack 40 ------- 1 6.0 0.0 9 24
+ 0.706751 2 0 ack 40 ------- 1 6.0 0.0 9 24
- 0.706751 2 0 ack 40 ------- 1 6.0 0.0 9 24
r 0.708591 2 0 ack 40 ------- 1 6.0 0.0 8 23
+ 0.708591 0 2 tcp 1040 ------- 1 0.0 6.0 17 29
+ 0.708591 0 2 tcp 1040 ------- 1 0.0 6.0 18 30
- 0.708591 0 2 tcp 1040 ------- 1 0.0 6.0 17 29
r 0.711145 4 6 tcp 1040 ------- 1 0.0 6.0 12 19
+ 0.711145 6 4 ack 40 ------- 1 6.0 0.0 12 31
- 0.711145 6 4 ack 40 ------- 1 6.0 0.0 12 31
- 0.712751 0 2 tcp 1040 ------- 1 0.0 6.0 18 30
r 0.713071 6 4 ack 40 ------- 1 6.0 0.0 11 28
+ 0.713071 4 2 ack 40 ------- 1 6.0 0.0 11 28
- 0.713071 4 2 ack 40 ------- 1 6.0 0.0 11 28
r 0.714431 0 2 tcp 1040 ------- 1 0.0 6.0 15 26
+ 0.714431 2 4 tcp 1040 ------- 1 0.0 6.0 15 26
- 0.714431 2 4 tcp 1040 ------- 1 0.0 6.0 15 26
r 0.715071 4 2 ack 40 ------- 1 6.0 0.0 10 25
+ 0.715071 2 0 ack 40 ------- 1 6.0 0.0 10 25
- 0.715071 2 0 ack 40 ------- 1 6.0 0.0 10 25
r 0.716911 2 0 ack 40 ------- 1 6.0 0.0 9 24
+ 0.716911 0 2 tcp 1040 ------- 1 0.0 6.0 19 32
+ 0.716911 0 2 tcp 1040 ------- 1 0.0 6.0 20 33
- 0.716911 0 2 tcp 1040 ------- 1 0.0 6.0 19 32
r 0.718591 0 2 tcp 1040 ------- 1 0.0 6.0 16 27
+ 0.718591 2 4 tcp 1040 ------- 1 0.0 6.0 16 27
r 0.719465 4 6 tcp 1040 ------- 1 0.0 6.0 13 20
+ 0.719465 6 4 ack 40 ------- 1 6.0 0.0 13 34
- 0.719465 6 4 ack 40 ------- 1 6.0 0.0 13 34
- 0.721071 0 2 tcp 1040 ------- 1 0.0 6.0 20 33
r 0.721391 6 4 ack 40 ------- 1 6.0 0.0 12 31
+ 0.721391 4 2 ack 40 ------- 1 6.0 0.0 12 31
- 0.721391 4 2 ack 40 ------- 1 6.0 0.0 12 31
- 0.722751 2 4 tcp 1040 ------- 1 0.0 6.0 16 27
r 0.722751 0 2 tcp 1040 ------- 1 0.0 6.0 17 29
+ 0.722751 2 4 tcp 1040 ------- 1 0.0 6.0 17 29
r 0.723391 4 2 ack 40 ------- 1 6.0 0.0 11 28
+ 0.723391 2 0 ack 40 ------- 1 6.0 0.0 11 28
- 0.723391 2 0 ack 40 ------- 1 6.0 0.0 11 28
r 0.725231 2 0 ack 40 ------- 1 6.0 0.0 10 25
+ 0.725231 0 2 tcp 1040 ------- 1 0.0 6.0 21 35
+ 0.725231 0 2 tcp 1040 ------- 1 0.0 6.0 22 36
- 0.725231 0 2 tcp 1040 ------- 1 0.0 6.0 21 35
r 0.726911 0 2 tcp 1040 ------- 1 0.0 6.0 18 30
+ 0.726911 2 4 tcp 1040 ------- 1 0.0 6.0 18 30
- 0.729391 0 2 tcp 1040 ------- 1 0.0 6.0 22 36
r 0.729711 6 4 ack 40 ------- 1 6.0 0.0 13 34
+ 0.729711 4 2 ack 40 ------- 1 6.0 0.0 13 34
- 0.729711 4 2 ack 40 ------- 1 6.0 0.0 13 34
- 0.731071 2 4 tcp 1040 ------- 1 0.0 6.0 17 29
r 0.731071 0 2 tcp 1040 ------- 1 0.0 6.0 19 32
+ 0.731071 2 4 tcp 1040 ------- 1 0.0 6.0 19 32
r 0.731711 4 2 ack 40 ------- 1 6.0 0.0 12 31
+ 0.731711 2 0 ack 40 ------- 1 6.0 0.0 12 31
- 0.731711 2 0 ack 40 ------- 1 6.0 0.0 12 31
r 0.732751 2 4 tcp 1040 ------- 1 0.0 6.0 15 26
+ 0.732751 4 6 tcp 1040 ------- 1 0.0 6.0 15 26
- 0.732751 4 6 tcp 1040 ------- 1 0.0 6.0 15 26
r 0.733551 2 0 ack 40 ------- 1 6.0 0.0 11 28
+ 0.733551 0 2 tcp 1040 ------- 1 0.0 6.0 23 37
+ 0.733551 0 2 tcp 1040 ------- 1 0.0 6.0 24 38
- 0.733551 0 2 tcp 1040 ------- 1 0.0 6.0 23 37
r 0.735231 0 2 tcp 1040 ------- 1 0.0 6.0 20 33
+ 0.735231 2 4 tcp 1040 ------- 1 0.0 6.0 20 33
- 0.737711 0 2 tcp 1040 ------- 1 0.0 6.0 24 38
- 0.739391 2 4 tcp 1040 ------- 1 0.0 6.0 18 30
r 0.739391 0 2 tcp 1040 ------- 1 0.0 6.0 21 35
+ 0.739391 2 4 tcp 1040 ------- 1 0.0 6.0 21 35
r 0.740031 4 2 ack 40 ------- 1 6.0 0.0 13 34
+ 0.740031 2 0 ack 40 ------- 1 6.0 0.0 13 34
- 0.740031 2 0 ack 40 ------- 1 6.0 0.0 13 34
r 0.741071 2 4 tcp 1040 ------- 1 0.0 6.0 16 27
+ 0.741071 4 6 tcp 1040 ------- 1 0.0 6.0 16 27
- 0.741071 4 6 tcp 1040 ------- 1 0.0 6.0 16 27
r 0.741871 2 0 ack 40 ------- 1 6.0 0.0 12 31
+ 0.741871 0 2 tcp 1040 ------- 1 0.0 6.0 25 39
+ 0.741871 0 2 tcp 1040 ------- 1 0.0 6.0 26 40
- 0.741871 0 2 tcp 1040 ------- 1 0.0 6.0 25 39
r 0.743551 0 2 tcp 1040 ------- 1 0.0 6.0 22 36
+ 0.743551 2 4 tcp 1040 ------- 1 0.0 6.0 22 36
d 0.743551 2 4 tcp 1040 ------- 1 0.0 6.0 22 36
- 0.746031 0 2 tcp 1040 ------- 1 0.0 6.0 26 40
- 0.747711 2 4 tcp 1040 ------- 1 0.0 6.0 19 32
r 0.747711 0 2 tcp 1040 ------- 1 0.0 6.0 23 37
+ 0.747711 2 4 tcp 1040 ------- 1 0.0 6.0 23 37
r 0.749151 4 6 tcp 1040 ------- 1 0.0 6.0 15 26
+ 0.749151 6 4 ack 40 ------- 1 6.0 0.0 13 41
- 0.749151 6 4 ack 40 ------- 1 6.0 0.0 13 41
r 0.749391 2 4 tcp 1040 ------- 1 0.0 6.0 17 29
+ 0.749391 4 6 tcp 1040 ------- 1 0.0 6.0 17 29
- 0.749391 4 6 tcp 1040 ------- 1 0.0 6.0 17 29
r 0.750191 2 0 ack 40 ------- 1 6.0 0.0 13 34
+ 0.750191 0 2 tcp 1040 ------- 1 0.0 6.0 27 42
+ 0.750191 0 2 tcp 1040 ------- 1 0.0 6.0 28 43
- 0.750191 0 2 tcp 1040 ------- 1 0.0 6.0 27 42
r 0.751871 0 2 tcp 1040 ------- 1 0.0 6.0 24 38
+ 0.751871 2 4 tcp 1040 ------- 1 0.0 6.0 24 38
d 0.751871 2 4 tcp 1040 ------- 1 0.0 6.0 24 38
- 0.754351 0 2 tcp 1040 ------- 1 0.0 6.0 28 43
- 0.756031 2 4 tcp 1040 ------- 1 0.0 6.0 20 33
r 0.756031 0 2 tcp 1040 ------- 1 0.0 6.0 25 39
+ 0.756031 2 4 tcp 1040 ------- 1 0.0 6.0 25 39
r 0.757471 4 6 tcp 1040 ------- 1 0.0 6.0 16 27
+ 0.757471 6 4 ack 40 ------- 1 6.0 0.0 13 44
- 0.757471 6 4 ack 40 ------- 1 6.0 0.0 13 44
r 0.757711 2 4 tcp 1040 ------- 1 0.0 6.0 18 30
+ 0.757711 4 6 tcp 1040 ------- 1 0.0 6.0 18 30
- 0.757711 4 6 tcp 1040 ------- 1 0.0 6.0 18 30
r 0.759397 6 4 ack 40 ------- 1 6.0 0.0 13 41
+ 0.759397 4 2 ack 40 ------- 1 6.0 0.0 13 41
- 0.759397 4 2 ack 40 ------- 1 6.0 0.0 13 41
r 0.760191 0 2 tcp 1040 ------- 1 0.0 6.0 26 40
+ 0.760191 2 4 tcp 1040 ------- 1 0.0 6.0 26 40
d 0.760191 2 4 tcp 1040 ------- 1 0.0 6.0 26 40
- 0.764351 2 4 tcp 1040 ------- 1 0.0 6.0 21 35
r 0.764351 0 2 tcp 1040 ------- 1 0.0 6.0 27 42
+ 0.764351 2 4 tcp 1040 ------- 1 0.0 6.0 27 42
r 0.765791 4 6 tcp 1040 ------- 1 0.0 6.0 17 29
+ 0.765791 6 4 ack 40 ------- 1 6.0 0.0 13 45
- 0.765791 6 4 ack 40 ------- 1 6.0 0.0 13 45
r 0.766031 2 4 tcp 1040 ------- 1 0.0 6.0 19 32
+ 0.766031 4 6 tcp 1040 ------- 1 0.0 6.0 19 32
- 0.766031 4 6 tcp 1040 ------- 1 0.0 6.0 19 32
r 0.767717 6 4 ack 40 ------- 1 6.0 0.0 13 44
+ 0.767717 4 2 ack 40 ------- 1 6.0 0.0 13 44
- 0.767717 4 2 ack 40 ------- 1 6.0 0.0 13 44
r 0.768511 0 2 tcp 1040 ------- 1 0.0 6.0 28 43
+ 0.768511 2 4 tcp 1040 ------- 1 0.0 6.0 28 43
d 0.768511 2 4 tcp 1040 ------- 1 0.0 6.0 28 43
r 0.769717 4 2 ack 40 ------- 1 6.0 0.0 13 41
+ 0.769717 2 0 ack 40 ------- 1 6.0 0.0 13 41
- 0.769717 2 0 ack 40 ------- 1 6.0 0.0 13 41
- 0.772671 2 4 tcp 1040 ------- 1 0.0 6.0 23 37
r 0.774111 4 6 tcp 1040 ------- 1 0.0 6.0 18 30
+ 0.774111 6 4 ack 40 ------- 1 6.0 0.0 13 46
- 0.774111 6 4 ack 40 ------- 1 6.0 0.0 13 46
r 0.774351 2 4 tcp 1040 ------- 1 0.0 6.0 20 33
+ 0.774351 4 6 tcp 1040 ------- 1 0.0 6.0 20 33
- 0.774351 4 6 tcp 1040 ------- 1 0.0 6.0 20 33
r 0.776037 6 4 ack 40 ------- 1 6.0 0.0 13 45
+ 0.776037 4 2 ack 40 ------- 1 6.0 0.0 13 45
- 0.776037 4 2 ack 40 ------- 1 6.0 0.0 13 45
r 0.778037 4 2 ack 40 ------- 1 6.0 0.0 13 44
+ 0.778037 2 0 ack 40 ------- 1 6.0 0.0 13 44
- 0.778037 2 0 ack 40 ------- 1 6.0 0.0 13 44
r 0.779877 2 0 ack 40 ------- 1 6.0 0.0 13 41
+ 0.779877 0 2 tcp 1040 ------- 1 0.0 6.0 29 47
- 0.779877 0 2 tcp 1040 ------- 1 0.0 6.0 29 47
- 0.780991 2 4 tcp 1040 ------- 1 0.0 6.0 25 39
r 0.782431 4 6 tcp 1040 ------- 1 0.0 6.0 19 32
+ 0.782431 6 4 ack 40 ------- 1 6.0 0.0 13 48
- 0.782431 6 4 ack 40 ------- 1 6.0 0.0 13 48
r 0.782671 2 4 tcp 1040 ------- 1 0.0 6.0 21 35
+ 0.782671 4 6 tcp 1040 ------- 1 0.0 6.0 21 35
- 0.782671 4 6 tcp 1040 ------- 1 0.0 6.0 21 35
r 0.784357 6 4 ack 40 ------- 1 6.0 0.0 13 46
+ 0.784357 4 2 ack 40 ------- 1 6.0 0.0 13 46
- 0.784357 4 2 ack 40 ------- 1 6.0 0.0 13 46
r 0.786357 4 2 ack 40 ------- 1 6.0 0.0 13 45
+ 0.786357 2 0 ack 40 ------- 1 6.0 0.0 13 45
- 0.786357 2 0 ack 40 ------- 1 6.0 0.0 13 45
r 0.788197 2 0 ack 40 ------- 1 6.0 0.0 13 44
+ 0.788197 0 2 tcp 1040 ------- 1 0.0 6.0 30 49
- 0.788197 0 2 tcp 1040 ------- 1 0.0 6.0 30 49
- 0.789311 2 4 tcp 1040 ------- 1 0.0 6.0 27 42
r 0.790751 4 6 tcp 1040 ------- 1 0.0 6.0 20 33
+ 0.790751 6 4 ack 40 ------- 1 6.0 0.0 13 50
- 0.790751 6 4 ack 40 ------- 1 6.0 0.0 13 50
r 0.790991 2 4 tcp 1040 ------- 1 0.0 6.0 23 37
+ 0.790991 4 6 tcp 1040 ------- 1 0.0 6.0 23 37
- 0.790991 4 6 tcp 1040 ------- 1 0.0 6.0 23 37
r 0.792677 6 4 ack 40 ------- 1 6.0 0.0 13 48
+ 0.792677 4 2 ack 40 ------- 1 6.0 0.0 13 48
- 0.792677 4 2 ack 40 ------- 1 6.0 0.0 13 48
r 0.794037 0 2 tcp 1040 ------- 1 0.0 6.0 29 47
+ 0.794037 2 4 tcp 1040 ------- 1 0.0 6.0 29 47
r 0.794677 4 2 ack 40 ------- 1 6.0 0.0 13 46
+ 0.794677 2 0 ack 40 ------- 1 6.0 0.0 13 46
- 0.794677 2 0 ack 40 ------- 1 6.0 0.0 13 46
r 0.796517 2 0 ack 40 ------- 1 6.0 0.0 13 45
+ 0.796517 0 2 tcp 1040 ---A--- 1 0.0 6.0 14 51
- 0.796517 0 2 tcp 1040 ---A--- 1 0.0 6.0 14 51
- 0.797631 2 4 tcp 1040 ------- 1 0.0 6.0 29 47
r 0.799071 4 6 tcp 1040 ------- 1 0.0 6.0 21 35
+ 0.799071 6 4 ack 40 ------- 1 6.0 0.0 13 52
- 0.799071 6 4 ack 40 ------- 1 6.0 0.0 13 52
r 0.799311 2 4 tcp 1040 ------- 1 0.0 6.0 25 39
+ 0.799311 4 6 tcp 1040 ------- 1 0.0 6.0 25 39
- 0.799311 4 6 tcp 1040 ------- 1 0.0 6.0 25 39
r 0.800997 6 4 ack 40 ------- 1 6.0 0.0 13 50
+ 0.800997 4 2 ack 40 ------- 1 6.0 0.0 13 50
- 0.800997 4 2 ack 40 ------- 1 6.0 0.0 13 50
r 0.802357 0 2 tcp 1040 ------- 1 0.0 6.0 30 49
+ 0.802357 2 4 tcp 1040 ------- 1 0.0 6.0 30 49
r 0.802997 4 2 ack 40 ------- 1 6.0 0.0 13 48
+ 0.802997 2 0 ack 40 ------- 1 6.0 0.0 13 48
- 0.802997 2 0 ack 40 ------- 1 6.0 0.0 13 48
r 0.804837 2 0 ack 40 ------- 1 6.0 0.0 13 46
- 0.805951 2 4 tcp 1040 ------- 1 0.0 6.0 30 49
r 0.807391 4 6 tcp 1040 ------- 1 0.0 6.0 23 37
+ 0.807391 6 4 ack 40 ------- 1 6.0 0.0 13 53
- 0.807391 6 4 ack 40 ------- 1 6.0 0.0 13 53
r 0.807631 2 4 tcp 1040 ------- 1 0.0 6.0 27 42
+ 0.807631 4 6 tcp 1040 ------- 1 0.0 6.0 27 42
- 0.807631 4 6 tcp 1040 ------- 1 0.0 6.0 27 42
r 0.809317 6 4 ack 40 ------- 1 6.0 0.0 13 52
+ 0.809317 4 2 ack 40 ------- 1 6.0 0.0 13 52
- 0.809317 4 2 ack 40 ------- 1 6.0 0.0 13 52
r 0.810677 0 2 tcp 1040 ---A--- 1 0.0 6.0 14 51
+ 0.810677 2 4 tcp 1040 ---A--- 1 0.0 6.0 14 51
r 0.811317 4 2 ack 40 ------- 1 6.0 0.0 13 50
+ 0.811317 2 0 ack 40 ------- 1 6.0 0.0 13 50
- 0.811317 2 0 ack 40 ------- 1 6.0 0.0 13 50
r 0.813157 2 0 ack 40 ------- 1 6.0 0.0 13 48
- 0.814271 2 4 tcp 1040 ---A--- 1 0.0 6.0 14 51
r 0.815711 4 6 tcp 1040 ------- 1 0.0 6.0 25 39
+ 0.815711 6 4 ack 40 ------- 1 6.0 0.0 13 54
- 0.815711 6 4 ack 40 ------- 1 6.0 0.0 13 54
r 0.815951 2 4 tcp 1040 ------- 1 0.0 6.0 29 47
+ 0.815951 4 6 tcp 1040 ------- 1 0.0 6.0 29 47
- 0.815951 4 6 tcp 1040 ------- 1 0.0 6.0 29 47
r 0.817637 6 4 ack 40 ------- 1 6.0 0.0 13 53
+ 0.817637 4 2 ack 40 ------- 1 6.0 0.0 13 53
- 0.817637 4 2 ack 40 ------- 1 6.0 0.0 13 53
r 0.819637 4 2 ack 40 ------- 1 6.0 0.0 13 52
+ 0.819637 2 0 ack 40 ------- 1 6.0 0.0 13 52
- 0.819637 2 0 ack 40 ------- 1 6.0 0.0 13 52
r 0.821477 2 0 ack 40 ------- 1 6.0 0.0 13 50
r 0.824031 4 6 tcp 1040 ------- 1 0.0 6.0 27 42
+ 0.824031 6 4 ack 40 ------- 1 6.0 0.0 13 55
- 0.824031 6 4 ack 40 ------- 1 6.0 0.0 13 55
r 0.824271 2 4 tcp 1040 ------- 1 0.0 6.0 30 49
+ 0.824271 4 6 tcp 1040 ------- 1 0.0 6.0 30 49
- 0.824271 4 6 tcp 1040 ------- 1 0.0 6.0 30 49
r 0.825957 6 4 ack 40 ------- 1 6.0 0.0 13 54
+ 0.825957 4 2 ack 40 ------- 1 6.0 0.0 13 54
- 0.825957 4 2 ack 40 ------- 1 6.0 0.0 13 54
r 0.827957 4 2 ack 40 ------- 1 6.0 0.0 13 53
+ 0.827957 2 0 ack 40 ------- 1 6.0 0.0 13 53
- 0.827957 2 0 ack 40 ------- 1 6.0 0.0 13 53
r 0.829797 2 0 ack 40 ------- 1 6.0 0.0 13 52
r 0.832351 4 6 tcp 1040 ------- 1 0.0 6.0 29 47
+ 0.832351 6 4 ack 40 ------- 1 6.0 0.0 13 56
- 0.832351 6 4 ack 40 ------- 1 6.0 0.0 13 56
r 0.832591 2 4 tcp 1040 ---A--- 1 0.0 6.0 14 51
+ 0.832591 4 6 tcp 1040 ---A--- 1 0.0 6.0 14 51
- 0.832591 4 6 tcp 1040 ---A--- 1 0.0 6.0 14 51
r 0.834277 6 4 ack 40 ------- 1 6.0 0.0 13 55
+ 0.834277 4 2 ack 40 ------- 1 6.0 0.0 13 55
- 0.834277 4 2 ack 40 ------- 1 6.0 0.0 13 55
r 0.836277 4 2 ack 40 ------- 1 6.0 0.0 13 54
+ 0.836277 2 0 ack 40 ------- 1 6.0 0.0 13 54
- 0.836277 2 0 ack 40 ------- 1 6.0 0.0 13 54
r 0.838117 2 0 ack 40 ------- 1 6.0 0.0 13 53
r 0.840671 4 6 tcp 1040 ------- 1 0.0 6.0 30 49
+ 0.840671 6 4 ack 40 ------- 1 6.0 0.0 13 57
- 0.840671 6 4 ack 40 ------- 1 6.0 0.0 13 57
r 0.842597 6 4 ack 40 ------- 1 6.0 0.0 13 56
+ 0.842597 4 2 ack 40 ------- 1 6.0 0.0 13 56
- 0.842597 4 2 ack 40 ------- 1 6.0 0.0 13 56
r 0.844597 4 2 ack 40 ------- 1 6.0 0.0 13 55
+ 0.844597 2 0 ack 40 ------- 1 6.0 0.0 13 55
- 0.844597 2 0 ack 40 ------- 1 6.0 0.0 13 55
r 0.846437 2 0 ack 40 ------- 1 6.0 0.0 13 54
r 0.848991 4 6 tcp 1040 ---A--- 1 0.0 6.0 14 51
+ 0.848991 6 4 ack 40 ------- 1 6.0 0.0 21 58
- 0.848991 6 4 ack 40 ------- 1 6.0 0.0 21 58
r 0.850917 6 4 ack 40 ------- 1 6.0 0.0 13 57
+ 0.850917 4 2 ack 40 ------- 1 6.0 0.0 13 57
- 0.850917 4 2 ack 40 ------- 1 6.0 0.0 13 57
r 0.852917 4 2 ack 40 ------- 1 6.0 0.0 13 56
+ 0.852917 2 0 ack 40 ------- 1 6.0 0.0 13 56
- 0.852917 2 0 ack 40 ------- 1 6.0 0.0 13 56
r 0.854757 2 0 ack 40 ------- 1 6.0 0.0 13 55
r 0.859237 6 4 ack 40 ------- 1 6.0 0.0 21 58
+ 0.859237 4 2 ack 40 ------- 1 6.0 0.0 21 58
- 0.859237 4 2 ack 40 ------- 1 6.0 0.0 21 58
r 0.861237 4 2 ack 40 ------- 1 6.0 0.0 13 57
+ 0.861237 2 0 ack 40 ------- 1 6.0 0.0 13 57
- 0.861237 2 0 ack 40 ------- 1 6.0 0.0 13 57
r 0.863077 2 0 ack 40 ------- 1 6.0 0.0 13 56
r 0.869557 4 2 ack 40 ------- 1 6.0 0.0 21 58
+ 0.869557 2 0 ack 40 ------- 1 6.0 0.0 21 58
- 0.869557 2 0 ack 40 ------- 1 6.0 0.0 21 58
r 0.871397 2 0 ack 40 ------- 1 6.0 0.0 13 57
r 0.879717 2 0 ack 40 ------- 1 6.0 0.0 21 58
+ 0.879717 0 2 tcp 1040 ------- 1 0.0 6.0 22 59
- 0.879717 0 2 tcp 1040 ------- 1 0.0 6.0 22 59
+ 0.879717 0 2 tcp 1040 ------- 1 0.0 6.0 23 60
- 0.883877 0 2 tcp 1040 ------- 1 0.0 6.0 23 60
r 0.893877 0 2 tcp 1040 ------- 1 0.0 6.0 22 59
+ 0.893877 2 4 tcp 1040 ------- 1 0.0 6.0 22 59
- 0.893877 2 4 tcp 1040 ------- 1 0.0 6.0 22 59
r 0.898037 0 2 tcp 1040 ------- 1 0.0 6.0 23 60
+ 0.898037 2 4 tcp 1040 ------- 1 0.0 6.0 23 60
- 0.902197 2 4 tcp 1040 ------- 1 0.0 6.0 23 60
r 0.912197 2 4 tcp 1040 ------- 1 0.0 6.0 22 59
+ 0.912197 4 6 tcp 1040 ------- 1 0.0 6.0 22 59
- 0.912197 4 6 tcp 1040 ------- 1 0.0 6.0 22 59
r 0.920517 2 4 tcp 1040 ------- 1 0.0 6.0 23 60
+ 0.920517 4 6 tcp 1040 ------- 1 0.0 6.0 23 60
- 0.920517 4 6 tcp 1040 ------- 1 0.0 6.0 23 60
r 0.928597 4 6 tcp 1040 ------- 1 0.0 6.0 22 59
+ 0.928597 6 4 ack 40 ------- 1 6.0 0.0 23 61
- 0.928597 6 4 ack 40 ------- 1 6.0 0.0 23 61
r 0.936917 4 6 tcp 1040 ------- 1 0.0 6.0 23 60
+ 0.936917 6 4 ack 40 ------- 1 6.0 0.0 23 62
- 0.936917 6 4 ack 40 ------- 1 6.0 0.0 23 62
r 0.938843 6 4 ack 40 ------- 1 6.0 0.0 23 61
+ 0.938843 4 2 ack 40 ------- 1 6.0 0.0 23 61
- 0.938843 4 2 ack 40 ------- 1 6.0 0.0 23 61
r 0.947163 6 4 ack 40 ------- 1 6.0 0.0 23 62
+ 0.947163 4 2 ack 40 ------- 1 6.0 0.0 23 62
- 0.947163 4 2 ack 40 ------- 1 6.0 0.0 23 62
r 0.949163 4 2 ack 40 ------- 1 6.0 0.0 23 61
+ 0.949163 2 0 ack 40 ------- 1 6.0 0.0 23 61
- 0.949163 2 0 ack 40 ------- 1 6.0 0.0 23 61
r 0.957483 4 2 ack 40 ------- 1 6.0 0.0 23 62
+ 0.957483 2 0 ack 40 ------- 1 6.0 0.0 23 62
- 0.957483 2 0 ack 40 ------- 1 6.0 0.0 23 62
r 0.959323 2 0 ack 40 ------- 1 6.0 0.0 23 61
+ 0.959323 0 2 tcp 1040 ------- 1 0.0 6.0 24 63
- 0.959323 0 2 tcp 1040 ------- 1 0.0 6.0 24 63
+ 0.959323 0 2 tcp 1040 ------- 1 0.0 6.0 25 64
+ 0.959323 0 2 tcp 1040 ------- 1 0.0 6.0 26 65
- 0.963483 0 2 tcp 1040 ------- 1 0.0 6.0 25 64
r 0.967643 2 0 ack 40 ------- 1 6.0 0.0 23 62
+ 0.967643 0 2 tcp 1040 ------- 1 0.0 6.0 27 66
- 0.967643 0 2 tcp 1040 ------- 1 0.0 6.0 26 65
- 0.971803 0 2 tcp 1040 ------- 1 0.0 6.0 27 66
r 0.973483 0 2 tcp 1040 ------- 1 0.0 6.0 24 63
+ 0.973483 2 4 tcp 1040 ------- 1 0.0 6.0 24 63
- 0.973483 2 4 tcp 1040 ------- 1 0.0 6.0 24 63
r 0.977643 0 2 tcp 1040 ------- 1 0.0 6.0 25 64
+ 0.977643 2 4 tcp 1040 ------- 1 0.0 6.0 25 64
- 0.981803 2 4 tcp 1040 ------- 1 0.0 6.0 25 64
r 0.981803 0 2 tcp 1040 ------- 1 0.0 6.0 26 65
+ 0.981803 2 4 tcp 1040 ------- 1 0.0 6.0 26 65
r 0.985963 0 2 tcp 1040 ------- 1 0.0 6.0 27 66
+ 0.985963 2 4 tcp 1040 ------- 1 0.0 6.0 27 66
- 0.990123 2 4 tcp 1040 ------- 1 0.0 6.0 26 65
r 0.991803 2 4 tcp 1040 ------- 1 0.0 6.0 24 63
+ 0.991803 4 6 tcp 1040 ------- 1 0.0 6.0 24 63
- 0.991803 4 6 tcp 1040 ------- 1 0.0 6.0 24 63
- 0.998443 2 4 tcp 1040 ------- 1 0.0 6.0 27 66
r 1.000123 2 4 tcp 1040 ------- 1 0.0 6.0 25 64
+ 1.000123 4 6 tcp 1040 ------- 1 0.0 6.0 25 64
- 1.000123 4 6 tcp 1040 ------- 1 0.0 6.0 25 64
r 1.008203 4 6 tcp 1040 ------- 1 0.0 6.0 24 63
+ 1.008203 6 4 ack 40 ------- 1 6.0 0.0 25 67
- 1.008203 6 4 ack 40 ------- 1 6.0 0.0 25 67
r 1.008443 2 4 tcp 1040 ------- 1 0.0 6.0 26 65
+ 1.008443 4 6 tcp 1040 ------- 1 0.0 6.0 26 65
- 1.008443 4 6 tcp 1040 ------- 1 0.0 6.0 26 65
r 1.016523 4 6 tcp 1040 ------- 1 0.0 6.0 25 64
+ 1.016523 6 4 ack 40 ------- 1 6.0 0.0 25 68
- 1.016523 6 4 ack 40 ------- 1 6.0 0.0 25 68
r 1.016763 2 4 tcp 1040 ------- 1 0.0 6.0 27 66
+ 1.016763 4 6 tcp 1040 ------- 1 0.0 6.0 27 66
- 1.016763 4 6 tcp 1040 ------- 1 0.0 6.0 27 66
r 1.018449 6 4 ack 40 ------- 1 6.0 0.0 25 67
+ 1.018449 4 2 ack 40 ------- 1 6.0 0.0 25 67
- 1.018449 4 2 ack 40 ------- 1 6.0 0.0 25 67
r 1.024843 4 6 tcp 1040 ------- 1 0.0 6.0 26 65
+ 1.024843 6 4 ack 40 ------- 1 6.0 0.0 27 69
- 1.024843 6 4 ack 40 ------- 1 6.0 0.0 27 69
r 1.026769 6 4 ack 40 ------- 1 6.0 0.0 25 68
+ 1.026769 4 2 ack 40 ------- 1 6.0 0.0 25 68
- 1.026769 4 2 ack 40 ------- 1 6.0 0.0 25 68
r 1.028769 4 2 ack 40 ------- 1 6.0 0.0 25 67
+ 1.028769 2 0 ack 40 ------- 1 6.0 0.0 25 67
- 1.028769 2 0 ack 40 ------- 1 6.0 0.0 25 67
r 1.033163 4 6 tcp 1040 ------- 1 0.0 6.0 27 66
+ 1.033163 6 4 ack 40 ------- 1 6.0 0.0 27 70
- 1.033163 6 4 ack 40 ------- 1 6.0 0.0 27 70
r 1.035089 6 4 ack 40 ------- 1 6.0 0.0 27 69
+ 1.035089 4 2 ack 40 ------- 1 6.0 0.0 27 69
- 1.035089 4 2 ack 40 ------- 1 6.0 0.0 27 69
r 1.037089 4 2 ack 40 ------- 1 6.0 0.0 25 68
+ 1.037089 2 0 ack 40 ------- 1 6.0 0.0 25 68
- 1.037089 2 0 ack 40 ------- 1 6.0 0.0 25 68
r 1.038929 2 0 ack 40 ------- 1 6.0 0.0 25 67
+ 1.038929 0 2 tcp 1040 ------- 1 0.0 6.0 28 71
- 1.038929 0 2 tcp 1040 ------- 1 0.0 6.0 28 71
+ 1.038929 0 2 tcp 1040 ------- 1 0.0 6.0 29 72
- 1.043089 0 2 tcp 1040 ------- 1 0.0 6.0 29 72
r 1.043409 6 4 ack 40 ------- 1 6.0 0.0 27 70
+ 1.043409 4 2 ack 40 ------- 1 6.0 0.0 27 70
- 1.043409 4 2 ack 40 ------- 1 6.0 0.0 27 70
r 1.045409 4 2 ack 40 ------- 1 6.0 0.0 27 69
+ 1.045409 2 0 ack 40 ------- 1 6.0 0.0 27 69
- 1.045409 2 0 ack 40 ------- 1 6.0 0.0 27 69
r 1.047249 2 0 ack 40 ------- 1 6.0 0.0 25 68
+ 1.047249 0 2 tcp 1040 ------- 1 0.0 6.0 30 73
- 1.047249 0 2 tcp 1040 ------- 1 0.0 6.0 30 73
r 1.053089 0 2 tcp 1040 ------- 1 0.0 6.0 28 71
+ 1.053089 2 4 tcp 1040 ------- 1 0.0 6.0 28 71
- 1.053089 2 4 tcp 1040 ------- 1 0.0 6.0 28 71
r 1.053729 4 2 ack 40 ------- 1 6.0 0.0 27 70
+ 1.053729 2 0 ack 40 ------- 1 6.0 0.0 27 70
- 1.053729 2 0 ack 40 ------- 1 6.0 0.0 27 70
r 1.055569 2 0 ack 40 ------- 1 6.0 0.0 27 69
+ 1.055569 0 2 tcp 1040 ------- 1 0.0 6.0 31 74
- 1.055569 0 2 tcp 1040 ------- 1 0.0 6.0 31 74
+ 1.055569 0 2 tcp 1040 ------- 1 0.0 6.0 32 75
r 1.057249 0 2 tcp 1040 ------- 1 0.0 6.0 29 72
+ 1.057249 2 4 tcp 1040 ------- 1 0.0 6.0 29 72
- 1.059729 0 2 tcp 1040 ------- 1 0.0 6.0 32 75
r 1.061409 0 2 tcp 1040 ------- 1 0.0 6.0 30 73
+ 1.061409 2 4 tcp 1040 ------- 1 0.0 6.0 30 73
- 1.061409 2 4 tcp 1040 ------- 1 0.0 6.0 29 72
r 1.063889 2 0 ack 40 ------- 1 6.0 0.0 27 70
+ 1.063889 0 2 tcp 1040 ------- 1 0.0 6.0 33 76
- 1.063889 0 2 tcp 1040 ------- 1 0.0 6.0 33 76
r 1.069729 0 2 tcp 1040 ------- 1 0.0 6.0 31 74
+ 1.069729 2 4 tcp 1040 ------- 1 0.0 6.0 31 74
- 1.069729 2 4 tcp 1040 ------- 1 0.0 6.0 30 73
r 1.071409 2 4 tcp 1040 ------- 1 0.0 6.0 28 71